/*--------------------------------*- C++ -*----------------------------------*\
| =========                 |                                                 |
| \\      /  F ield         | OpenFOAM: The Open Source CFD Toolbox           |
|  \\    /   O peration     | Version:  v1806                                 |
|   \\  /    A nd           | Web:      www.OpenFOAM.com                      |
|    \\/     M anipulation  |                                                 |
\*---------------------------------------------------------------------------*/
FoamFile
{
    version     2.0;
    format      ascii;
    class       volScalarField;
    location    "200000";
    object      p;
}
// * * * * * * * * * * * * * * * * * * * * * * * * * * * * * * * * * * * * * //

dimensions      [0 2 -2 0 0 0 0];


internalField   nonuniform List<scalar> 
5000
(
1.72541e-13
1.37601e-07
3.97325e-08
-2.01392e-08
7.78601e-08
8.41108e-08
4.74471e-08
-3.21139e-08
-8.05595e-09
-1.03409e-08
-2.40066e-09
1.46198e-07
3.868e-08
-1.99552e-08
7.68271e-08
8.34368e-08
4.54561e-08
-3.63607e-08
-2.71323e-09
-1.57973e-08
4.69113e-09
1.72478e-07
2.90376e-08
-2.24894e-08
7.70352e-08
8.01771e-08
4.13262e-08
-3.35696e-08
-8.18033e-10
-3.7578e-08
2.04145e-08
1.92821e-07
7.31181e-09
-2.50204e-08
7.99652e-08
7.23867e-08
3.34357e-08
-1.39197e-08
-8.17944e-09
-5.66041e-08
5.50909e-08
1.93113e-07
-1.92398e-08
-2.50751e-08
9.27063e-08
7.01334e-08
2.57879e-09
1.29464e-08
-1.56493e-08
-6.74209e-08
8.9591e-08
1.63655e-07
-4.69278e-08
-8.43246e-09
1.21518e-07
7.23961e-08
-3.35599e-08
2.34116e-08
-2.03156e-09
-8.23711e-08
1.06467e-07
1.3639e-07
-8.05501e-08
2.56625e-08
1.59135e-07
3.64252e-08
-4.13768e-08
5.11395e-08
9.13298e-09
-1.09895e-07
9.56147e-08
1.03756e-07
-1.00377e-07
7.96369e-08
1.77837e-07
-1.68194e-08
-2.98127e-08
9.57017e-08
2.34377e-08
-1.3908e-07
7.21513e-08
9.15143e-08
-1.12775e-07
1.36707e-07
1.59509e-07
-7.92151e-08
5.32372e-09
1.44658e-07
2.92291e-08
-1.56381e-07
4.09797e-08
6.52939e-08
-1.13735e-07
1.85685e-07
1.18626e-07
-1.02077e-07
5.46418e-08
1.651e-07
3.9033e-08
-1.599e-07
1.55907e-08
4.29311e-08
-1.21623e-07
2.02873e-07
1.26471e-07
-1.13157e-07
9.33149e-08
1.52689e-07
2.98683e-08
-1.21943e-07
5.66744e-09
3.75407e-08
-1.15502e-07
1.75589e-07
1.29852e-07
-1.06662e-07
1.25371e-07
1.52754e-07
3.0722e-09
-9.36411e-08
2.36409e-08
4.07516e-08
-1.00238e-07
1.25173e-07
1.27126e-07
-7.70561e-08
1.42072e-07
1.32188e-07
-2.58804e-08
-6.64125e-08
-6.07359e-11
1.09581e-08
-8.04038e-08
5.87078e-08
8.59684e-08
-4.86423e-10
1.63767e-07
8.26883e-08
2.08961e-09
-1.92287e-09
-2.96313e-08
2.64129e-08
-2.64378e-08
-7.0231e-09
2.97735e-08
7.36179e-08
1.5403e-07
2.01469e-08
2.45349e-08
5.32438e-08
1.43831e-08
2.76991e-08
-2.83609e-08
-4.78685e-09
4.21831e-09
8.22357e-08
1.25269e-07
5.70194e-08
3.24896e-08
2.28909e-08
3.2188e-08
-2.40578e-08
7.93448e-08
4.04567e-08
-8.38395e-08
8.68832e-09
9.20817e-08
1.22037e-07
3.24805e-08
4.00927e-08
1.7733e-08
-1.95348e-08
1.10164e-07
5.16372e-08
-1.46431e-07
1.18476e-08
1.12828e-07
8.90127e-08
8.71101e-08
3.32619e-08
-6.82599e-08
4.27181e-08
1.45235e-07
7.12062e-08
-1.81552e-07
2.81879e-08
1.36954e-07
-3.08924e-08
1.80205e-07
1.4663e-08
-1.31182e-07
5.83004e-08
1.90682e-07
7.10783e-08
-1.81498e-07
8.60803e-08
9.24137e-08
-1.51299e-07
2.28575e-07
4.1641e-08
-1.26975e-07
3.29069e-09
1.39431e-07
8.35266e-08
-1.05324e-07
9.55766e-08
-4.07337e-08
-1.80171e-07
2.70478e-07
1.50809e-07
5.69734e-08
2.40525e-08
7.52342e-08
9.47565e-08
-7.77252e-08
3.76273e-08
-1.46521e-07
-1.46342e-07
2.28092e-07
1.48646e-07
5.23582e-09
1.57695e-08
1.16672e-07
4.75334e-08
6.3031e-08
-3.50356e-10
-2.40451e-07
-1.09841e-07
2.15382e-07
1.94444e-07
-6.65881e-08
1.47336e-07
1.45294e-07
-9.23692e-08
9.06943e-08
-5.9942e-08
-2.24347e-07
-1.13699e-07
2.30323e-07
2.54604e-07
-8.9301e-08
2.81371e-07
1.27832e-07
-1.22388e-07
1.31051e-07
-8.79322e-08
-2.46553e-07
-9.96949e-08
2.315e-07
1.54162e-07
-1.04052e-07
3.86448e-07
1.37621e-07
-1.08351e-07
1.19871e-07
-2.26791e-07
-2.24632e-07
-3.28865e-08
2.32096e-07
7.62787e-08
-9.78913e-08
4.21958e-07
1.37431e-07
-1.14744e-07
1.36172e-07
-2.4996e-07
-1.87874e-07
-4.79668e-08
1.50702e-07
8.62411e-08
-8.86088e-08
4.05312e-07
1.77537e-07
-1.24142e-07
7.79887e-08
-2.34019e-07
-1.61807e-07
-8.55508e-08
1.12096e-07
1.05975e-07
-1.01896e-07
3.86831e-07
2.70373e-07
-1.85802e-07
-6.23358e-08
-1.38319e-07
-9.44297e-08
-5.81793e-08
1.12852e-07
9.8604e-08
-5.15162e-08
5.39631e-07
2.9412e-07
-3.11527e-07
4.78824e-08
5.48144e-08
-3.19959e-07
1.04888e-08
1.47266e-07
-1.87822e-07
-3.00398e-08
5.92271e-07
2.59344e-07
-3.11535e-07
1.29938e-07
6.12066e-08
-4.40363e-07
5.4053e-08
1.72862e-07
-2.89263e-07
1.07205e-07
5.20742e-07
1.60695e-07
-1.56792e-07
1.75978e-07
-1.64711e-07
-3.4252e-07
1.45639e-07
-5.38671e-09
-2.68849e-07
1.96843e-07
3.6728e-07
2.52568e-07
9.11398e-08
1.70825e-08
-1.22777e-07
-2.95021e-07
-3.82665e-08
-9.16315e-08
-1.85141e-07
4.48477e-07
2.57457e-07
-8.71368e-08
2.30199e-07
9.57094e-08
-1.59517e-07
-1.91228e-07
-7.25694e-08
-1.83552e-07
-1.35225e-07
4.40361e-07
5.5773e-08
-1.20064e-07
3.1635e-07
9.54491e-08
-1.42994e-07
-6.01473e-08
-1.08068e-07
-2.52175e-07
-4.9229e-08
1.38567e-07
-1.74683e-07
6.25837e-08
3.26858e-07
8.54158e-08
-4.09495e-08
7.43413e-08
-1.76023e-07
-2.89141e-07
1.52935e-07
8.77515e-08
-2.99047e-07
1.63647e-07
2.37744e-07
-1.77664e-07
1.59479e-07
2.23724e-07
-2.97428e-07
-2.13152e-07
2.65228e-07
-3.16087e-07
-1.30441e-07
2.01013e-07
-9.07306e-08
3.37477e-08
1.01058e-07
-4.87112e-08
7.43426e-08
2.09231e-07
7.06689e-08
-1.80294e-07
4.21754e-08
2.88894e-08
-2.16282e-07
3.18503e-07
2.95664e-07
-2.71658e-07
1.21429e-07
1.96177e-07
-1.89812e-07
-2.11109e-07
-2.30114e-07
-6.84081e-08
8.44252e-08
2.57436e-07
5.01755e-08
-1.51331e-07
7.44348e-08
2.31724e-07
7.48814e-08
1.79864e-07
-3.21325e-07
-5.08998e-08
1.09044e-07
-1.04081e-07
2.1927e-07
1.28414e-07
-2.20771e-07
-4.56702e-08
2.90586e-07
3.6474e-07
6.05453e-08
-2.80068e-07
-7.93204e-08
-1.41923e-08
1.18191e-07
2.85641e-08
-9.49949e-08
3.61438e-09
2.32663e-08
3.21772e-07
8.76143e-08
-2.74739e-07
-7.26511e-08
6.38868e-08
3.13065e-07
1.11256e-07
-4.06412e-07
-1.69774e-07
1.60839e-07
4.54927e-08
1.25615e-07
5.18935e-08
-1.63078e-07
9.33742e-08
4.05053e-08
-1.14333e-07
-2.16625e-07
-5.15834e-08
2.86744e-07
3.36042e-07
6.58061e-08
-2.33462e-07
8.61425e-08
1.04896e-07
-2.71617e-07
6.9321e-08
-8.74896e-08
-1.76796e-07
2.65607e-07
2.09544e-07
1.77206e-07
-2.17235e-07
2.69383e-08
7.80984e-08
-2.22148e-07
3.85086e-08
-5.75083e-08
-1.87664e-08
1.58433e-07
3.20205e-07
2.60927e-07
-2.56467e-07
-7.7173e-08
1.12683e-08
-2.28836e-07
3.30812e-08
-2.50364e-09
-1.34012e-08
1.56124e-07
3.49116e-07
3.67196e-07
-1.84463e-07
-2.57761e-07
-1.98258e-08
-1.04801e-07
-2.1715e-07
2.41622e-07
1.72941e-07
-1.15127e-07
4.4504e-07
3.46054e-07
-1.23813e-07
-4.22414e-08
1.74032e-07
-6.7285e-08
-3.80164e-07
-5.1405e-08
1.71249e-08
-4.85215e-08
5.70299e-07
4.33347e-07
1.0063e-07
-5.20532e-08
-2.15606e-07
-1.42793e-07
-1.11794e-07
-2.23614e-07
-2.01978e-07
1.27458e-07
-2.80967e-08
7.13655e-08
3.29917e-08
-7.49281e-09
8.61954e-08
7.83897e-08
-3.59892e-08
-1.71824e-08
6.77249e-08
1.6322e-08
-2.97974e-08
7.98876e-08
2.68165e-08
-7.26468e-09
9.32772e-08
7.04405e-08
-3.96353e-08
-1.43953e-08
7.59389e-08
6.65425e-09
-2.61216e-08
8.66422e-08
1.93849e-08
-8.686e-09
1.03376e-07
6.3967e-08
-4.27892e-08
-8.12011e-09
7.69546e-08
-8.52143e-09
-1.12325e-08
9.19384e-08
1.53855e-08
-1.99433e-09
9.92562e-08
6.34487e-08
-4.46202e-08
-1.22145e-09
7.67146e-08
-3.18649e-08
1.06522e-08
9.36204e-08
1.94961e-08
2.32351e-08
7.25986e-08
6.44817e-08
-3.28647e-08
1.75519e-08
5.71165e-08
-6.91308e-08
3.73998e-08
9.16218e-08
2.32976e-08
3.01072e-08
5.10692e-08
8.09474e-08
-1.84063e-08
1.61185e-08
1.76287e-08
-8.03924e-08
5.35665e-08
1.05167e-07
1.20744e-08
2.54866e-08
4.76531e-08
8.17324e-08
1.74968e-08
2.79563e-10
-3.32991e-09
-8.7195e-08
6.05958e-08
1.29521e-07
-1.6447e-08
3.46774e-08
4.70879e-08
4.32359e-08
2.7546e-08
2.2814e-08
1.15761e-08
-1.10645e-07
6.31343e-08
1.35355e-07
-9.73573e-09
3.88468e-08
2.92738e-08
1.31692e-08
5.20478e-08
4.07373e-08
-2.12199e-08
-1.02945e-07
7.17204e-08
1.74001e-07
7.30916e-09
-1.41651e-08
-1.457e-08
1.07484e-08
1.09777e-07
2.68403e-08
-6.64886e-08
-6.95683e-08
7.80436e-08
1.82043e-07
-5.7703e-09
-4.56946e-08
-2.43279e-08
2.75624e-08
1.53313e-07
2.86201e-09
-8.69658e-08
-4.88278e-08
9.05305e-08
1.73044e-07
1.48075e-08
-8.34439e-08
-5.15994e-08
9.06819e-08
1.43514e-07
-5.23339e-08
-6.74641e-08
-1.64992e-08
1.3785e-07
9.45458e-08
-2.40712e-09
-7.08929e-08
-5.46068e-08
1.18947e-07
1.13231e-07
-5.36709e-08
-7.17573e-08
2.46976e-08
1.68679e-07
8.8683e-08
-4.66851e-08
-6.10979e-08
-1.82228e-08
8.96611e-08
6.98651e-08
-6.91651e-08
-5.48495e-08
7.4398e-08
1.49786e-07
6.06285e-08
-1.22099e-08
-4.63725e-08
-1.40012e-08
1.64401e-08
6.56552e-08
-5.16784e-08
-6.18434e-08
1.37478e-07
1.02661e-07
1.10733e-07
3.48591e-08
-1.05729e-07
1.04414e-08
-5.70982e-08
-1.32444e-08
9.03005e-09
-1.19506e-08
1.6465e-07
7.8315e-08
1.96253e-07
3.48548e-08
-1.04472e-07
6.27323e-09
-1.44519e-07
-2.03953e-08
4.08694e-08
1.4211e-08
1.18258e-07
-1.96123e-09
2.553e-07
5.85775e-08
-1.23647e-07
-1.83597e-08
-1.5182e-07
-1.23122e-08
5.55048e-08
7.69937e-08
7.19099e-08
-3.2361e-08
2.95278e-07
4.27866e-08
-1.4691e-07
-2.87497e-08
-1.26903e-07
4.72265e-09
3.54988e-08
1.07053e-07
3.47243e-08
-3.03343e-08
2.94061e-07
7.47551e-08
-1.34408e-07
-1.08667e-07
-1.08859e-07
2.42062e-08
5.54407e-09
1.3903e-07
2.93952e-08
3.42796e-08
2.49285e-07
4.5015e-08
-4.55472e-08
-1.06647e-07
-1.52068e-07
-7.7464e-08
7.29186e-10
1.70332e-07
7.01532e-08
2.55435e-07
1.55286e-07
-5.48003e-08
6.22764e-08
1.13318e-09
-1.27659e-07
-2.12594e-07
-2.76451e-08
8.84968e-08
7.88626e-08
3.53672e-07
1.13886e-07
-1.04658e-07
1.30637e-07
8.83409e-08
-2.60393e-07
-3.01495e-07
6.88644e-08
9.59494e-08
2.42886e-08
3.65918e-07
1.37929e-07
-1.5685e-07
2.38744e-07
1.66072e-07
-3.46577e-07
-3.33332e-07
6.43808e-08
1.07143e-07
-9.74937e-09
3.04189e-07
1.76224e-07
-1.81833e-07
2.86305e-07
2.40402e-07
-3.32637e-07
-3.65974e-07
1.0393e-07
1.56143e-07
-1.47662e-07
3.14842e-07
2.22194e-07
-1.92276e-07
2.75855e-07
2.68891e-07
-3.88468e-07
-3.18237e-07
1.98141e-07
4.67673e-08
-2.03737e-07
3.52211e-07
2.68927e-07
-1.82144e-07
2.20765e-07
2.36028e-07
-4.03115e-07
-2.57995e-07
2.56137e-07
-3.84633e-08
-2.26863e-07
3.78722e-07
2.87501e-07
-1.57944e-07
1.62816e-07
1.70506e-07
-3.35377e-07
-1.75578e-07
2.5991e-07
-1.13803e-07
-2.26617e-07
2.80877e-07
2.47025e-07
-1.66574e-08
-5.94231e-08
-9.84054e-09
-7.53685e-08
-1.58913e-08
2.33895e-07
-1.34715e-07
-1.9163e-07
1.59193e-07
3.72902e-07
1.15084e-07
-2.32596e-07
2.52357e-08
1.1722e-07
6.89189e-08
1.06996e-07
-2.16893e-07
-1.97523e-07
-2.08583e-08
3.79447e-07
1.30694e-07
-2.01206e-07
2.46453e-07
1.83125e-07
-2.9219e-07
4.32139e-08
1.10799e-07
-2.85179e-07
-1.28338e-07
9.89285e-08
8.01982e-08
-8.7968e-09
3.8236e-07
7.68852e-08
-3.30044e-07
-7.20499e-08
2.23391e-07
-4.34049e-08
7.66243e-09
1.13695e-07
-2.37902e-08
1.01964e-07
2.64619e-07
-4.9117e-08
-1.83442e-07
3.43305e-08
5.04651e-08
-1.25938e-07
1.06409e-07
1.21565e-07
2.77971e-08
-4.96779e-08
1.7818e-07
-3.21209e-09
4.39826e-08
7.82408e-08
-2.73658e-07
-5.35761e-08
1.47851e-07
-1.64646e-07
1.38877e-07
8.08149e-08
-1.01444e-07
1.02364e-10
1.38596e-07
7.46943e-08
-2.53765e-07
6.04927e-08
-9.66329e-08
-4.7598e-08
2.08949e-07
-2.85244e-08
-1.8468e-07
1.96592e-07
7.43684e-08
1.27229e-07
5.56815e-08
-2.42699e-07
-7.71992e-08
-5.72748e-08
1.17242e-07
8.6299e-08
-1.49971e-07
1.64364e-07
1.47591e-07
2.1145e-07
2.64532e-08
-3.41159e-07
-1.7596e-07
-3.60161e-10
1.40392e-08
-6.76279e-08
1.93397e-07
3.2864e-07
-1.72908e-07
1.82709e-07
2.15733e-07
-3.54432e-07
-1.58428e-07
1.85522e-07
-4.30766e-08
-1.21367e-07
3.47629e-07
2.34789e-07
-2.37251e-07
1.8461e-07
2.19412e-07
-3.81725e-07
1.53794e-07
-1.55576e-08
-3.30313e-07
2.4055e-07
1.76784e-07
-1.06756e-07
-2.64194e-08
2.0565e-07
8.35199e-08
-2.65355e-07
3.15612e-08
-1.41656e-07
-1.82306e-07
2.95226e-07
7.32588e-08
-1.74235e-07
-2.69835e-08
1.24574e-07
1.84548e-07
-1.75247e-08
3.0418e-07
-2.28328e-07
-2.5844e-08
4.61028e-08
-1.15545e-07
-4.98151e-08
1.01522e-07
-1.34482e-08
-1.5244e-07
2.75602e-07
1.26703e-07
-2.465e-07
1.68171e-07
1.54642e-07
-2.20105e-07
1.50522e-07
1.10988e-07
-2.56716e-07
-1.2012e-07
2.69138e-07
1.14241e-07
8.61307e-08
2.8697e-09
1.5996e-07
8.30891e-08
-2.16485e-07
-1.80697e-07
-1.02369e-07
3.34959e-08
1.58338e-07
1.19278e-07
-8.89465e-08
2.71524e-07
1.5047e-07
-2.06979e-07
-3.12419e-08
-2.65008e-08
-1.87186e-07
-8.15741e-08
2.60151e-07
1.62197e-07
-7.92254e-09
2.58581e-07
-3.57034e-08
-2.51768e-07
6.31973e-08
-9.04785e-08
-1.89587e-07
2.15612e-08
2.72548e-07
-1.3386e-09
2.44271e-07
1.46133e-07
-3.1711e-07
-1.48714e-07
1.67025e-07
-4.538e-08
-2.02474e-07
1.54246e-07
2.42749e-07
3.78884e-07
3.13814e-07
-1.64458e-07
-2.8318e-07
-1.98616e-07
3.40914e-08
8.4154e-08
1.80651e-07
2.25856e-08
-8.38475e-08
1.88246e-08
1.94307e-07
2.09986e-07
1.80382e-07
-1.05497e-07
-2.24371e-07
-8.58273e-08
-5.81157e-08
1.07183e-07
6.4891e-08
1.68247e-07
3.65691e-07
2.65103e-07
1.95896e-07
1.91181e-08
-6.24347e-08
-1.34574e-07
-2.34202e-07
-1.70602e-07
-8.92106e-08
5.68326e-09
1.01172e-07
7.23065e-08
-3.62218e-08
2.9547e-08
6.18798e-08
-1.68481e-08
-2.94028e-09
4.01719e-08
5.99769e-10
1.70788e-09
1.06635e-07
8.03053e-08
-4.23459e-08
2.49848e-08
7.13197e-08
-2.2205e-08
-9.3392e-09
4.93117e-08
-1.95124e-09
5.87301e-09
1.1e-07
8.43526e-08
-4.37412e-08
2.64843e-08
8.19761e-08
-3.04738e-08
-1.47383e-08
4.96664e-08
-5.83473e-09
2.67859e-08
1.12192e-07
8.61758e-08
-4.24375e-08
2.02719e-08
9.26782e-08
-2.2506e-08
-1.37271e-08
3.05282e-08
-2.02711e-08
5.07823e-08
1.08992e-07
7.06693e-08
-1.23761e-08
1.66649e-09
8.43713e-08
6.40113e-10
-8.01506e-09
7.20085e-09
-3.91686e-08
8.99288e-08
1.12e-07
5.6105e-08
-5.0618e-09
-3.37695e-08
9.52633e-08
4.45502e-08
-1.27718e-08
-3.8653e-08
-5.11245e-08
1.24341e-07
1.18595e-07
3.86219e-08
-5.70682e-09
-5.00599e-08
1.15063e-07
8.80035e-08
-5.77212e-08
-6.76035e-08
-4.73391e-08
1.40324e-07
1.31653e-07
1.10439e-08
-7.26852e-09
-5.11883e-08
1.19677e-07
1.03751e-07
-6.33257e-08
-6.73098e-08
-6.07289e-08
1.51792e-07
1.1858e-07
-3.62305e-09
1.15477e-08
-4.51176e-08
8.94376e-08
1.0525e-07
-3.3771e-08
-7.10077e-08
-7.62801e-08
1.63746e-07
1.4024e-07
-1.19583e-08
-4.21249e-09
-5.84897e-08
1.0624e-07
1.04866e-07
-6.08662e-08
-6.37616e-08
-7.38172e-08
1.48581e-07
1.35957e-07
-5.14657e-09
3.02016e-08
-7.19613e-08
7.78162e-08
1.00639e-07
-7.42712e-08
-4.40406e-08
-6.54355e-08
1.46779e-07
1.562e-07
-2.46614e-08
4.44093e-08
-6.8205e-08
4.17255e-08
8.12649e-08
-4.15821e-08
-2.72851e-08
-8.41657e-08
2.15194e-07
1.64515e-07
-1.16761e-07
5.03897e-08
-1.60499e-08
-4.36646e-08
2.66945e-08
5.83306e-08
-1.55943e-08
-1.0446e-07
2.42539e-07
1.43686e-07
-1.43749e-07
7.07832e-08
-1.40638e-08
-1.09984e-07
4.84821e-09
1.21936e-07
9.48799e-09
-1.23401e-07
2.27265e-07
1.45568e-07
-1.59264e-07
7.62668e-08
-8.58564e-10
-1.3502e-07
-3.49134e-08
1.60815e-07
6.88249e-08
-1.55457e-07
2.13748e-07
1.60564e-07
-1.70677e-07
4.99587e-08
1.63449e-08
-1.45744e-07
-6.40963e-08
1.89869e-07
9.63255e-08
-1.64029e-07
1.91401e-07
1.89773e-07
-1.74487e-07
-1.60168e-08
-4.26694e-09
-1.41528e-07
-6.99736e-08
2.36828e-07
1.26527e-07
-1.71169e-07
1.70176e-07
2.11155e-07
-2.10981e-07
-1.52782e-08
-4.69316e-09
-1.58688e-07
-7.29923e-08
2.38722e-07
1.65775e-07
-1.70851e-07
1.52875e-07
1.9861e-07
-2.18767e-07
3.22999e-08
3.16602e-08
-1.70211e-07
-1.36432e-07
1.91297e-07
2.17007e-07
-1.68663e-07
1.43282e-07
1.6733e-07
-2.0811e-07
8.68968e-08
3.5554e-08
-1.7483e-07
-1.87801e-07
1.55185e-07
2.75061e-07
-1.55261e-07
1.34808e-07
1.44662e-07
-1.89979e-07
1.42823e-07
4.99125e-08
-1.8389e-07
-2.2871e-07
1.32132e-07
3.07202e-07
-1.42903e-07
1.15022e-07
7.25943e-08
-1.25749e-07
2.30884e-07
3.22018e-08
-1.95881e-07
-2.79156e-07
1.15874e-07
3.06088e-07
-1.27364e-07
8.89036e-08
1.31289e-08
-4.03945e-08
2.18412e-07
5.13372e-08
-2.2621e-07
-3.28676e-07
1.19383e-07
2.98668e-07
-5.40066e-08
2.02675e-07
-2.84565e-08
-2.6701e-08
1.12796e-07
-1.88788e-08
-1.53728e-08
-3.05773e-07
-1.61112e-08
1.99964e-07
7.77064e-09
2.23937e-07
-6.94533e-08
-4.21378e-08
3.99462e-08
-4.75936e-08
1.03308e-08
-1.69873e-07
-9.38569e-08
8.52278e-08
2.04309e-07
1.91742e-07
-1.06916e-08
-5.3375e-08
-1.74464e-08
-4.92095e-08
-1.25142e-07
6.19653e-08
1.86156e-08
-1.03964e-07
2.00914e-07
2.28403e-07
2.38069e-08
4.10494e-08
-2.43034e-08
-1.24927e-07
-1.57195e-07
1.61164e-07
3.21348e-08
-2.15498e-07
1.6114e-07
2.63373e-07
2.09737e-07
-1.20489e-07
3.28606e-08
-3.42953e-08
-2.71877e-07
2.21556e-07
5.52774e-08
-2.67009e-07
3.40107e-08
3.85265e-07
2.34489e-07
-2.64042e-07
4.95342e-08
1.9625e-08
-2.51178e-07
2.20296e-07
1.26475e-07
-3.09193e-07
-6.24321e-08
3.78324e-07
1.30858e-07
-3.00982e-07
-3.06244e-08
2.15445e-07
-7.90462e-08
7.62259e-08
3.13929e-08
-2.68508e-07
-1.47151e-08
2.54205e-07
1.72834e-08
-3.12503e-07
5.16167e-08
3.57266e-07
2.57347e-08
-1.86504e-07
2.58153e-08
2.78707e-08
-1.02437e-07
2.88194e-07
-4.08656e-08
-3.07377e-07
4.82307e-08
3.33905e-07
1.91946e-08
-1.61115e-07
-1.12644e-07
-3.35504e-08
9.67266e-08
1.89313e-07
3.12314e-08
-2.31218e-07
1.44686e-07
1.94656e-07
-7.4111e-08
-4.60873e-08
-1.21593e-07
-3.01743e-08
5.46323e-08
1.95737e-08
-5.89518e-08
3.12092e-08
5.12947e-08
8.10091e-09
1.51327e-07
5.27682e-08
-1.53765e-07
-9.02502e-08
7.73207e-08
2.72894e-08
-1.07142e-07
2.22187e-07
1.25729e-07
-2.3668e-07
4.77136e-08
1.90071e-07
-4.24848e-08
-1.53247e-07
4.65703e-08
-8.51617e-08
8.16649e-08
1.79646e-07
-2.39565e-07
-1.73206e-07
1.20203e-07
3.33769e-07
5.31573e-08
-1.87388e-07
-3.05235e-08
-1.33446e-07
2.02992e-07
-1.88489e-08
-2.30218e-07
1.4021e-07
7.69218e-08
2.15727e-07
1.30633e-07
-2.00207e-07
-1.26875e-07
-6.07209e-08
1.29496e-07
8.34119e-08
-1.86955e-07
1.67461e-07
1.45805e-08
7.46484e-08
9.5318e-08
-2.38514e-07
2.39933e-10
2.25664e-07
5.63829e-08
-2.06954e-07
1.58233e-07
2.5484e-07
-2.49808e-07
-6.40246e-09
2.09213e-07
-2.02149e-07
-1.24986e-07
2.10888e-07
4.17879e-09
-3.08175e-07
2.91949e-07
1.41698e-07
-2.54812e-07
2.24081e-07
1.07765e-07
-2.24491e-07
-1.19966e-07
3.01218e-08
8.39889e-08
3.57828e-08
8.14096e-09
-7.19756e-08
-3.38713e-08
3.31019e-09
1.4252e-07
2.66028e-09
-1.38601e-07
7.32437e-08
1.69977e-07
9.78806e-08
-2.54149e-07
-9.50237e-08
1.74066e-08
-9.49597e-08
4.32749e-08
9.20411e-08
8.19964e-08
-5.94772e-08
-2.44171e-07
2.70963e-07
4.94166e-08
-1.85393e-07
2.61111e-07
-8.99056e-08
-2.60968e-07
1.19359e-07
2.78128e-07
5.31547e-08
-1.16543e-07
2.49062e-07
7.47533e-08
-1.07183e-07
1.39598e-07
-1.91811e-07
-2.79321e-07
2.17248e-08
2.80108e-07
-7.50253e-08
1.25755e-07
2.01257e-07
-2.03646e-07
8.16289e-08
4.91324e-08
-3.60938e-07
-1.33262e-07
2.06121e-07
2.24053e-07
-6.04067e-08
1.74011e-07
3.03771e-07
-2.41779e-07
-5.36004e-08
-1.40538e-07
-3.58943e-07
1.5589e-08
2.86495e-07
2.17636e-07
7.12427e-08
1.23378e-07
2.98707e-07
-1.04945e-07
-1.0662e-07
-5.18548e-08
-3.43303e-07
1.40994e-08
1.93073e-07
9.24792e-08
3.76588e-07
1.49143e-07
-1.46639e-07
4.80667e-08
-8.69215e-08
-2.84326e-07
1.2351e-07
2.44008e-08
-1.67584e-07
1.51428e-07
1.13982e-07
1.51022e-07
3.16918e-07
2.77649e-07
-1.08757e-07
-3.41008e-07
2.8744e-08
4.67274e-08
-2.75708e-07
-1.90637e-08
7.43717e-08
2.22961e-07
3.16913e-07
1.31143e-07
8.00656e-08
-5.77221e-09
-2.40513e-07
-1.02662e-07
-1.2524e-07
-1.4048e-07
8.60177e-08
1.55815e-07
-3.71661e-08
-2.23966e-08
9.56722e-08
5.559e-08
-5.60844e-08
3.29019e-09
4.02596e-08
-4.55798e-08
8.87671e-08
1.57414e-07
-3.93022e-08
-1.96458e-08
1.02453e-07
4.71024e-08
-6.42974e-08
1.26363e-08
4.29887e-08
-5.49893e-08
9.40096e-08
1.58957e-07
-3.74591e-08
-2.27532e-08
1.03363e-07
4.54962e-08
-6.93631e-08
2.05573e-08
3.98112e-08
-5.72232e-08
9.62055e-08
1.67962e-07
-2.69731e-08
-4.05029e-08
9.61467e-08
5.58283e-08
-6.68509e-08
1.766e-08
2.62842e-08
-5.39768e-08
1.05892e-07
1.85068e-07
-4.15153e-08
-4.8551e-08
1.03496e-07
4.99454e-08
-6.19571e-08
1.73102e-08
1.68402e-08
-6.03535e-08
1.31767e-07
1.76837e-07
-6.41972e-08
-4.03126e-08
1.04001e-07
3.54807e-08
-6.16058e-08
3.37647e-08
1.45804e-08
-7.13423e-08
1.57361e-07
1.49696e-07
-5.98383e-08
-2.48519e-08
8.37813e-08
2.58534e-08
-5.35819e-08
3.51115e-08
2.83052e-09
-6.50922e-08
1.73124e-07
1.01714e-07
-6.56808e-08
1.0065e-08
6.14273e-08
-7.64081e-10
-2.56408e-08
2.47819e-08
7.07562e-10
-4.04074e-08
1.81599e-07
5.10323e-08
-7.26344e-08
2.5941e-08
5.65947e-08
-1.1044e-08
-6.36031e-09
-9.41011e-10
-2.64293e-08
3.0535e-08
1.64394e-07
2.54873e-08
-6.12453e-08
2.81483e-08
5.74348e-08
-1.60054e-08
1.88486e-08
-1.90365e-08
-6.67778e-08
9.6059e-08
1.79147e-07
-4.05018e-10
-7.1971e-08
1.565e-08
7.5598e-08
-7.82847e-09
5.87489e-09
-1.0782e-08
-7.5877e-08
1.20275e-07
1.71823e-07
-2.01523e-08
-5.82518e-08
3.3679e-08
3.27161e-08
1.27727e-08
-2.18986e-08
-3.30379e-08
-2.86021e-08
1.33748e-07
2.04936e-07
-6.26003e-08
9.16428e-10
9.03636e-08
-8.11235e-08
2.72493e-09
8.12683e-09
-2.26371e-08
-5.93103e-08
1.12213e-07
2.47168e-07
-1.4513e-07
5.60622e-08
1.15575e-07
-1.72691e-07
-3.14726e-08
3.50081e-08
-3.25006e-09
-6.71026e-08
1.52187e-07
2.54867e-07
-1.82244e-07
8.01287e-08
1.05873e-07
-2.18324e-07
-7.88578e-08
1.00806e-07
3.78599e-08
-1.04822e-07
1.91896e-07
2.76012e-07
-2.01314e-07
8.63757e-08
8.92027e-08
-2.7828e-07
-9.14935e-08
1.4378e-07
4.92584e-08
-1.10318e-07
2.34433e-07
2.94599e-07
-2.01348e-07
7.83527e-08
4.92182e-08
-2.88383e-07
-1.08354e-07
1.25302e-07
6.47064e-08
-9.29247e-08
2.72075e-07
3.10978e-07
-1.9797e-07
5.77543e-08
1.58972e-08
-2.98665e-07
-1.16923e-07
9.86635e-08
7.51882e-08
-6.19477e-08
3.07216e-07
3.19965e-07
-1.97529e-07
3.84316e-08
-1.13007e-09
-2.99452e-07
-1.08706e-07
4.76728e-08
6.05975e-08
-9.07185e-10
3.47653e-07
2.89059e-07
-1.88947e-07
3.65505e-08
1.19416e-08
-2.85947e-07
-1.01746e-07
-7.66723e-08
-1.41244e-08
1.4259e-07
4.08594e-07
2.82185e-07
-1.66271e-07
4.69589e-08
2.63863e-08
-2.9187e-07
-1.29386e-07
-1.13703e-07
-5.66421e-08
2.05491e-07
4.13846e-07
2.86605e-07
-1.3242e-07
7.11339e-08
7.11126e-08
-3.10297e-07
-1.03675e-07
-1.27615e-07
-1.63037e-07
2.12348e-07
3.82865e-07
2.08414e-07
-2.49617e-08
1.67417e-07
7.65051e-08
-2.96123e-07
-1.15361e-07
-2.18933e-07
-2.13973e-07
2.4446e-07
3.1477e-07
2.18509e-07
9.88942e-08
1.37336e-07
7.42659e-08
-2.70333e-07
-1.04515e-07
-2.26835e-07
-2.03092e-07
1.98826e-07
1.79465e-07
2.13484e-07
1.57004e-07
-9.21885e-09
2.0495e-08
-1.24569e-07
-8.59408e-08
-2.1383e-07
-1.73407e-07
1.7553e-07
1.5367e-07
-5.22506e-08
1.78284e-07
9.08591e-08
-1.94693e-07
9.42284e-09
-2.60777e-08
-2.86076e-07
-1.22574e-07
2.74731e-07
2.05267e-07
-1.00913e-07
2.0701e-07
9.7672e-08
-2.37059e-07
5.08176e-08
-3.94398e-08
-1.83022e-07
-8.07419e-08
1.93478e-07
1.58111e-07
-8.11255e-08
1.3276e-07
-6.1375e-08
-1.08912e-07
1.56432e-07
-7.55156e-08
-1.09419e-07
-4.9759e-08
1.32586e-07
1.30366e-07
2.40369e-07
1.31017e-07
-2.79549e-07
-5.12158e-09
9.4015e-08
-1.85957e-07
-9.19497e-09
1.25942e-08
-2.88465e-08
8.69623e-08
2.03386e-07
-1.22448e-07
-1.64249e-07
9.06322e-08
8.46639e-08
-2.40811e-07
1.5145e-07
3.53888e-08
-2.5251e-07
2.63478e-07
2.70263e-07
-2.39353e-07
-2.0784e-07
1.81224e-07
1.06709e-07
-1.9688e-07
1.21659e-07
-5.80178e-08
-1.96736e-07
3.52973e-07
2.36156e-07
-2.05678e-07
-1.70786e-07
-7.90224e-10
-8.0328e-09
2.01025e-08
3.37814e-08
-1.23812e-07
-5.71734e-08
3.91314e-07
2.17625e-07
-2.62733e-07
2.2951e-08
1.30024e-07
-1.90452e-07
1.57089e-07
1.14768e-07
-3.19934e-07
-1.04274e-07
3.7082e-07
1.20606e-07
-1.41257e-07
1.97576e-07
1.44332e-07
-2.48551e-07
2.13085e-07
1.99108e-07
-2.94143e-07
-2.11726e-07
1.49328e-07
1.83595e-07
4.68318e-08
-1.22928e-07
2.92613e-08
-7.84028e-08
2.67886e-07
2.0496e-07
-3.2398e-07
-1.25767e-07
6.57469e-08
2.98806e-07
-6.06054e-09
-1.47938e-07
-1.08756e-07
-3.66192e-08
3.54098e-07
1.27552e-07
-3.49523e-07
-1.56586e-07
1.8846e-07
1.2721e-07
-7.97285e-08
-1.80828e-07
-1.29432e-07
2.03539e-07
3.5784e-07
7.87218e-08
-2.00234e-07
-1.93544e-07
1.27498e-07
1.28036e-07
-1.53365e-07
-1.1104e-07
-3.81699e-08
3.0709e-07
1.07253e-07
-1.75772e-07
1.25226e-08
-8.98597e-08
1.31077e-07
1.48944e-07
-2.67342e-07
7.37201e-10
2.4968e-07
7.33815e-08
-1.84973e-07
-2.7344e-08
6.24992e-08
-1.58448e-07
1.99347e-07
3.13431e-07
-2.44555e-07
-3.27598e-07
3.62184e-07
2.78597e-07
-2.20825e-07
1.37831e-07
3.29322e-08
-2.98373e-07
7.55709e-08
1.82162e-07
-1.5251e-07
-2.36661e-07
2.51279e-07
1.50919e-07
5.5858e-08
-2.08492e-08
8.37706e-08
-2.58595e-08
-1.84317e-07
-2.93241e-07
-5.46212e-08
6.54949e-08
-1.76035e-08
1.87585e-07
2.15749e-07
-2.31486e-07
-1.05763e-07
3.25937e-07
9.90234e-09
-1.23599e-07
7.78197e-08
-3.0104e-08
-4.0021e-08
3.40308e-07
2.65053e-07
-3.37706e-07
-2.03831e-07
1.40788e-07
-6.67049e-08
2.15346e-08
2.63255e-07
-1.53388e-08
-1.97611e-07
3.39579e-07
2.13351e-07
-2.79495e-07
-2.98204e-07
-4.50706e-08
8.76141e-08
-7.69471e-08
1.66946e-07
1.1163e-07
-1.67156e-07
8.17223e-08
-9.17929e-08
-1.68234e-07
-2.44153e-08
9.85724e-08
1.45789e-07
2.32596e-07
9.28422e-08
1.99107e-07
6.54714e-08
-1.63674e-07
-2.83304e-07
-2.08549e-07
2.1547e-07
-4.03775e-08
-1.33999e-08
3.17241e-07
1.57841e-07
-4.8501e-08
1.02107e-07
-4.61639e-08
-2.75667e-07
-3.20949e-07
-1.36512e-07
1.68341e-07
2.26993e-07
1.76566e-07
-6.57007e-08
5.34052e-08
4.85266e-08
4.7309e-08
-4.22974e-08
5.58863e-08
-1.39634e-07
-2.72188e-07
2.46377e-07
1.98434e-07
-5.4344e-08
2.48329e-07
1.62934e-07
-2.10991e-07
-5.2048e-08
-4.43222e-08
-1.23528e-07
-1.50906e-07
8.25333e-08
6.7774e-08
-1.02643e-07
1.38467e-07
1.02703e-07
7.70779e-08
-2.83209e-08
-2.12465e-07
-2.33907e-08
-3.2176e-08
8.08853e-08
1.40117e-08
9.91259e-08
8.04569e-08
2.7719e-08
2.53777e-08
2.68455e-08
3.39242e-08
2.7674e-08
-1.32034e-08
-4.12014e-08
1.14487e-08
1.03362e-07
7.86023e-08
2.08296e-08
2.93964e-08
2.86085e-08
3.41612e-08
2.29323e-08
-8.38907e-09
-4.20128e-08
6.90404e-09
1.12192e-07
8.15917e-08
-1.36698e-10
2.59554e-08
4.34467e-08
4.29877e-08
1.57311e-09
-1.51193e-08
-2.40502e-08
1.87185e-08
1.18722e-07
8.91552e-08
-5.69427e-09
1.53397e-08
3.92174e-08
4.01739e-08
4.64001e-09
-2.64833e-08
-2.12235e-08
3.6291e-08
1.23184e-07
9.54048e-08
-5.6938e-09
1.25753e-08
2.31222e-08
2.66838e-08
3.3355e-08
-3.08292e-08
-3.8402e-08
5.39427e-08
1.13813e-07
9.26433e-08
9.49132e-09
-2.5406e-09
1.32113e-08
2.6932e-08
4.16518e-08
-2.48299e-08
-4.66001e-08
5.83154e-08
9.28899e-08
1.11919e-07
4.11573e-08
-4.00599e-08
4.57809e-09
6.47592e-08
1.64186e-08
-4.47633e-08
-2.30032e-08
7.98838e-08
7.02657e-08
1.02948e-07
5.6304e-08
-5.753e-08
-2.59976e-08
9.56982e-08
2.64291e-08
-6.75756e-08
2.505e-09
1.15824e-07
4.63633e-08
6.81812e-08
6.24978e-08
-4.45806e-08
-4.82778e-08
9.20436e-08
2.42966e-08
-7.96068e-08
4.335e-08
1.30207e-07
3.11741e-08
6.25635e-08
5.33876e-08
-3.23861e-08
-4.23961e-08
7.39691e-08
2.3229e-08
-8.67616e-08
6.73553e-08
1.49937e-07
3.0493e-08
7.30925e-08
2.94966e-08
-3.02772e-08
1.1261e-09
2.11743e-08
-3.22481e-09
-7.17104e-08
7.68994e-08
1.6476e-07
7.04158e-08
7.11573e-08
1.84275e-08
-7.59581e-08
1.91903e-08
9.59381e-09
-2.0573e-08
-3.90239e-08
5.94107e-08
1.31881e-07
6.16611e-08
1.08606e-07
4.83018e-08
-1.41477e-07
3.65118e-09
1.04082e-08
3.94706e-09
3.33071e-08
2.25688e-08
1.36215e-07
8.75831e-08
9.03007e-08
2.45146e-08
-1.42834e-07
4.21971e-08
-9.71125e-09
-5.88555e-08
8.29206e-08
1.12539e-08
1.74793e-07
9.06548e-08
4.09462e-08
4.79236e-09
-1.33272e-07
5.37723e-08
-1.13336e-08
-5.42015e-08
7.44859e-08
8.03805e-09
1.83464e-07
1.47478e-07
-1.69929e-08
-7.21445e-08
-1.13793e-07
6.65256e-08
1.22221e-09
-5.23527e-08
8.37324e-08
5.39174e-09
1.0378e-07
2.24988e-07
8.73622e-09
-1.97569e-07
-1.18084e-07
9.45023e-08
-1.53951e-08
-6.53885e-08
1.32189e-07
4.18326e-08
8.27562e-08
2.15317e-07
-3.81407e-09
-2.51601e-07
-1.10758e-07
7.22992e-08
-2.84873e-08
-4.86272e-08
1.52235e-07
1.23187e-07
5.05918e-08
2.20783e-07
1.44934e-08
-3.18028e-07
-1.43441e-07
4.61142e-08
-5.41587e-08
-4.43407e-08
2.20564e-07
2.10615e-07
-6.53452e-08
1.56012e-07
6.75576e-08
-3.64325e-07
-1.34534e-07
-3.50488e-08
-1.31647e-07
2.85493e-08
3.7669e-07
3.10565e-07
-1.07061e-07
1.19998e-07
7.48028e-08
-3.6482e-07
-1.20856e-07
-5.30262e-08
-1.70661e-07
3.05986e-08
4.55984e-07
3.41584e-07
-1.24583e-07
9.26538e-08
3.96908e-08
-2.95251e-07
-6.42556e-08
-1.76252e-07
-1.78156e-07
6.65842e-08
4.52147e-07
3.53879e-07
-1.33485e-07
8.58656e-08
5.74722e-08
-2.31723e-07
-5.78416e-08
-2.51455e-07
-2.13032e-07
9.0621e-08
4.41202e-07
3.27185e-07
-1.06753e-07
1.16649e-07
5.68e-08
-1.9588e-07
-2.4815e-08
-2.47701e-07
-2.50264e-07
6.83363e-08
4.04864e-07
2.68045e-07
-8.816e-10
1.24263e-07
-3.05303e-08
-2.34911e-08
-2.27258e-08
-3.93782e-07
-2.09929e-07
1.76064e-07
3.28885e-07
1.18264e-07
-1.63157e-08
1.70352e-07
-7.44518e-08
-8.44741e-08
-2.31613e-08
-3.56657e-07
-1.83277e-07
3.23137e-07
3.62761e-07
-2.88205e-08
-6.77663e-08
2.51641e-07
1.48763e-08
-2.41732e-07
-9.42263e-08
-2.04715e-07
-1.09781e-07
3.39597e-07
3.47095e-07
-1.0569e-07
-1.13935e-07
1.66791e-07
-8.4449e-08
-2.4118e-07
-1.14704e-07
-1.00916e-07
1.90561e-08
1.10933e-07
3.55527e-07
9.53548e-08
4.8709e-08
1.42109e-07
-2.28902e-07
-2.07078e-07
-6.46859e-08
-1.83419e-08
1.35763e-07
-4.4073e-08
1.41803e-07
1.5153e-07
1.58833e-07
-1.33394e-07
-6.34625e-08
-3.89289e-08
-2.16274e-07
-9.99834e-08
2.833e-07
1.39281e-08
-1.19067e-07
2.62584e-07
1.87109e-09
2.22628e-08
-1.06026e-07
-9.38036e-08
-1.29972e-07
3.28819e-08
2.32153e-07
-1.32045e-07
3.27514e-08
1.74839e-07
-1.90766e-08
5.57704e-08
-1.15279e-07
-6.73712e-08
-4.99172e-08
1.3509e-07
3.28016e-08
-2.32714e-07
1.73444e-07
1.41435e-07
-1.6014e-08
-2.86112e-08
2.8479e-09
1.44835e-08
5.2211e-08
2.19101e-07
-1.94873e-07
-2.22549e-07
1.81586e-07
9.47545e-08
1.53767e-07
-2.27732e-07
6.08924e-08
5.83215e-08
-7.71542e-08
3.72637e-07
3.55011e-08
-2.35257e-07
-1.45172e-07
1.22233e-07
3.30187e-08
-1.84796e-07
1.46796e-07
-1.01709e-09
-3.16894e-08
3.7916e-07
-6.29313e-08
-1.69906e-07
-7.0994e-08
6.92173e-08
9.61796e-08
-4.37296e-09
1.40516e-08
-8.2379e-08
1.79927e-07
1.0777e-07
-1.01849e-07
-1.93751e-07
-1.34953e-07
2.2978e-07
-1.11406e-07
2.35926e-07
-1.20704e-08
-4.43197e-09
1.91321e-07