/*--------------------------------*- C++ -*----------------------------------*\
| =========                 |                                                 |
| \\      /  F ield         | OpenFOAM: The Open Source CFD Toolbox           |
|  \\    /   O peration     | Version:  v1806                                 |
|   \\  /    A nd           | Web:      www.OpenFOAM.com                      |
|    \\/     M anipulation  |                                                 |
\*---------------------------------------------------------------------------*/
FoamFile
{
    version     2.0;
    format      ascii;
    class       surfaceScalarField;
    location    "200000";
    object      phi;
}
// * * * * * * * * * * * * * * * * * * * * * * * * * * * * * * * * * * * * * //

dimensions      [0 3 -1 0 0 0 0];
oriented        oriented;


internalField   nonuniform List<scalar> 
13900
(
0.0109799
2.78386e-11
-0.00270004
0.0109799
-5.41997e-11
-0.00270004
0.0109799
-2.19757e-11
-0.00270004
0.0109799
1.23452e-11
-0.00270004
0.0109799
-4.15023e-12
-0.00270004
0.0109799
-1.31544e-11
-0.00270004
0.0109799
1.00113e-11
-0.00270004
0.0109799
1.93634e-11
-0.00270004
0.0109799
-1.63609e-11
-0.00270004
3.01492e-11
-0.00270004
0.0150815
3.72803e-12
-0.00355437
0.0150815
-9.83333e-11
-0.00355437
0.0150815
-1.37123e-11
-0.00355437
0.0150815
2.71947e-11
-0.00355437
0.0150815
-3.06514e-11
-0.00355437
0.0150815
-3.75111e-12
-0.00355437
0.0150815
3.53967e-11
-0.00355437
0.0150815
-2.58632e-11
-0.00355437
0.0150815
-2.77871e-12
-0.00355437
8.3862e-11
-0.00355437
0.017778
-3.3269e-11
-0.00405256
0.017778
-9.40752e-11
-0.00405256
0.017778
2.36645e-11
-0.00405256
0.017778
2.92258e-11
-0.00405256
0.017778
-6.57868e-11
-0.00405256
0.017778
3.0177e-12
-0.00405256
0.017778
5.74176e-11
-0.00405256
0.017778
-6.84937e-11
-0.00405256
0.017778
7.14477e-12
-0.00405256
1.09398e-10
-0.00405256
0.0200032
-7.0008e-11
-0.00442763
0.0200032
-7.38079e-11
-0.00442763
0.0200032
7.99338e-11
-0.00442763
0.0200032
2.40713e-11
-0.00442763
0.0200032
-1.01831e-10
-0.00442763
0.0200032
-2.83708e-11
-0.00442763
0.0200032
9.93405e-11
-0.00442763
0.0200032
-3.65982e-11
-0.00442763
0.0200032
-9.54737e-12
-0.00442763
8.69152e-11
-0.00442763
0.0220311
-5.31035e-11
-0.00474457
0.0220311
-3.25248e-11
-0.00474457
0.0220311
1.12678e-10
-0.00474457
0.0220311
-2.3589e-12
-0.00474457
0.0220311
-1.33897e-10
-0.00474457
0.0220311
-5.46759e-11
-0.00474457
0.0220311
1.31422e-10
-0.00474457
0.0220311
7.3375e-12
-0.00474457
0.0220311
-4.99626e-11
-0.00474457
5.1247e-11
-0.00474457
0.0239754
-1.2046e-11
-0.00502894
0.0239754
-2.25151e-12
-0.00502894
0.0239754
1.14849e-10
-0.00502894
0.0239754
-4.18657e-11
-0.00502894
0.0239754
-1.31418e-10
-0.00502894
0.0239754
-9.96691e-12
-0.00502894
0.0239754
1.07872e-10
-0.00502894
0.0239754
-1.83584e-11
-0.00502894
0.0239754
-6.72152e-11
-0.00502894
4.1719e-11
-0.00502894
0.025894
3.15681e-11
-0.00529286
0.025894
2.8021e-11
-0.00529286
0.025894
8.60882e-11
-0.00529286
0.025894
-7.61287e-11
-0.00529286
0.025894
-9.50696e-11
-0.00529286
0.025894
4.34395e-11
-0.00529286
0.025894
6.71639e-11
-0.00529286
0.025894
-4.6283e-11
-0.00529286
0.025894
-7.95874e-11
-0.00529286
2.93684e-11
-0.00529286
0.0278205
4.61243e-11
-0.00554272
0.0278205
3.76792e-11
-0.00554272
0.0278205
6.28898e-11
-0.00554272
0.0278205
-7.6169e-11
-0.00554272
0.0278205
-6.63666e-11
-0.00554272
0.0278205
8.76341e-11
-0.00554272
0.0278205
6.94923e-12
-0.00554272
0.0278205
-4.91624e-11
-0.00554272
0.0278205
-4.35163e-11
-0.00554272
-1.33577e-11
-0.00554272
0.0297769
4.51267e-11
-0.00578218
0.0297769
6.08929e-11
-0.00578218
0.0297769
4.0671e-11
-0.00578218
0.0297769
-6.40504e-11
-0.00578218
0.0297769
-4.66569e-11
-0.00578218
0.0297769
7.1855e-11
-0.00578218
0.0297769
-3.74113e-11
-0.00578218
0.0297769
-1.93809e-11
-0.00578218
0.0297769
6.52055e-12
-0.00578218
-5.60448e-11
-0.00578218
0.0317788
3.10382e-11
-0.00601334
0.0317788
5.40074e-11
-0.00601334
0.0317788
2.3058e-11
-0.00601334
0.0317788
-3.82114e-11
-0.00601334
0.0317788
-4.37159e-11
-0.00601334
0.0317788
5.67523e-11
-0.00601334
0.0317788
-5.296e-11
-0.00601334
0.0317788
9.03861e-13
-0.00601334
0.0317788
5.43671e-11
-0.00601334
-7.17611e-11
-0.00601334
0.0338381
7.29903e-12
-0.00623741
0.0338381
2.63392e-11
-0.00623741
0.0338381
-2.26677e-11
-0.00623741
0.0338381
-1.66118e-11
-0.00623741
0.0338381
-2.32064e-12
-0.00623741
0.0338381
3.76229e-11
-0.00623741
0.0338381
-6.35148e-11
-0.00623741
0.0338381
-2.59576e-11
-0.00623741
0.0338381
9.52895e-11
-0.00623741
-1.2394e-11
-0.00623741
0.0359646
-1.80354e-11
-0.00645502
0.0359646
3.91316e-13
-0.00645502
0.0359646
-6.29734e-11
-0.00645502
0.0359646
-2.24167e-12
-0.00645502
0.0359646
4.84454e-11
-0.00645502
0.0359646
6.53806e-12
-0.00645502
0.0359646
-4.69449e-11
-0.00645502
0.0359646
-1.51536e-11
-0.00645502
0.0359646
1.08543e-10
-0.00645502
1.89492e-11
-0.00645502
0.0381665
-7.67385e-12
-0.00666638
0.0381665
2.03027e-12
-0.00666638
0.0381665
-8.64334e-11
-0.00666638
0.0381665
8.53677e-12
-0.00666638
0.0381665
9.58219e-11
-0.00666638
0.0381665
-2.42838e-11
-0.00666638
0.0381665
-2.66673e-11
-0.00666638
0.0381665
4.15243e-11
-0.00666638
0.0381665
5.6406e-11
-0.00666638
-2.00914e-11
-0.00666638
0.0404511
-3.93155e-11
-0.00687143
0.0404511
-2.93924e-11
-0.00687143
0.0404511
-9.71298e-11
-0.00687143
0.0404511
-5.28024e-12
-0.00687143
0.0404511
1.02531e-10
-0.00687143
0.0404511
-8.00375e-12
-0.00687143
0.0404511
1.59943e-11
-0.00687143
0.0404511
9.40949e-11
-0.00687143
0.0404511
3.77148e-11
-0.00687143
-4.54871e-11
-0.00687143
0.0428253
-1.0123e-10
-0.00706991
0.0428253
3.50834e-12
-0.00706991
0.0428253
-5.53041e-11
-0.00706991
0.0428253
-6.39237e-11
-0.00706991
0.0428253
6.20844e-11
-0.00706991
0.0428253
4.64412e-11
-0.00706991
0.0428253
5.80387e-11
-0.00706991
0.0428253
5.93013e-11
-0.00706991
0.0428253
3.15772e-11
-0.00706991
-4.95649e-11
-0.00706991
0.0452955
-8.83927e-11
-0.00726135
0.0452955
6.21412e-11
-0.00726135
0.0452955
-1.10272e-10
-0.00726135
0.0452955
-1.13769e-10
-0.00726135
0.0452955
8.13433e-11
-0.00726135
0.0452955
1.02261e-10
-0.00726135
0.0452955
9.20914e-11
-0.00726135
0.0452955
4.45994e-11
-0.00726135
0.0452955
9.17573e-12
-0.00726135
-1.06053e-10
-0.00726135
0.0478678
-3.1119e-11
-0.00744517
0.0478678
3.12156e-11
-0.00744517
0.0478678
-5.94924e-11
-0.00744517
0.0478678
-8.43107e-11
-0.00744517
0.0478678
6.79473e-11
-0.00744517
0.0478678
4.64478e-11
-0.00744517
0.0478678
4.11938e-11
-0.00744517
0.0478678
7.96378e-11
-0.00744517
0.0478678
-4.45608e-11
-0.00744517
-7.88331e-11
-0.00744517
0.0505481
5.85165e-11
-0.00762068
0.0505481
-2.49856e-11
-0.00762068
0.0505481
-4.40316e-11
-0.00762068
0.0505481
-2.95587e-11
-0.00762068
0.0505481
3.81835e-11
-0.00762068
0.0505481
-1.61948e-11
-0.00762068
0.0505481
-2.40238e-11
-0.00762068
0.0505481
1.00194e-10
-0.00762068
0.0505481
-5.41298e-11
-0.00762068
-3.20817e-11
-0.00762068
0.0533424
4.80181e-11
-0.00778709
0.0533424
-4.12747e-11
-0.00778709
0.0533424
-2.06095e-11
-0.00778709
0.0533424
3.2628e-11
-0.00778709
0.0533424
-4.47303e-12
-0.00778709
0.0533424
-8.91681e-11
-0.00778709
0.0533424
-5.45504e-11
-0.00778709
0.0533424
9.44176e-11
-0.00778709
0.0533424
6.61104e-12
-0.00778709
4.6886e-12
-0.00778709
0.0562564
-1.38241e-11
-0.00794353
0.0562564
-3.85602e-11
-0.00794353
0.0562564
2.94299e-11
-0.00794353
0.0562564
5.22456e-11
-0.00794353
0.0562564
-6.76641e-11
-0.00794353
0.0562564
-8.39927e-11
-0.00794353
0.0562564
-8.17339e-12
-0.00794353
0.0562564
4.28109e-11
-0.00794353
0.0562564
3.75171e-11
-0.00794353
2.78121e-11
-0.00794353
0.0592962
-8.21174e-11
-0.00808911
0.0592962
-7.54988e-11
-0.00808911
0.0592962
9.62767e-12
-0.00808911
0.0592962
4.31261e-11
-0.00808911
0.0592962
-6.11945e-11
-0.00808911
0.0592962
-3.29803e-11
-0.00808911
0.0592962
6.21037e-11
-0.00808911
0.0592962
4.75285e-12
-0.00808911
0.0592962
6.34485e-11
-0.00808911
6.03606e-11
-0.00808911
0.0624674
4.30035e-11
-0.00822288
0.0624674
-2.74098e-11
-0.00822288
0.0624674
-6.96806e-11
-0.00822288
0.0624674
3.90361e-11
-0.00822288
0.0624674
-8.03765e-11
-0.00822288
0.0624674
-1.05976e-11
-0.00822288
0.0624674
1.24802e-10
-0.00822288
0.0624674
1.66524e-11
-0.00822288
0.0624674
4.94178e-12
-0.00822288
-2.72057e-11
-0.00822288
0.065776
8.25856e-11
-0.0083439
0.065776
-6.5769e-11
-0.0083439
0.065776
-9.76117e-11
-0.0083439
0.065776
6.69014e-11
-0.0083439
0.065776
2.7939e-11
-0.0083439
0.065776
4.06655e-11
-0.0083439
0.065776
8.65127e-11
-0.0083439
0.065776
4.26909e-11
-0.0083439
0.065776
-5.30595e-11
-0.0083439
-9.92436e-11
-0.0083439
0.069228
6.78759e-11
-0.00845123
0.069228
-6.04938e-11
-0.00845123
0.069228
-9.1714e-11
-0.00845123
0.069228
2.76306e-11
-0.00845123
0.069228
6.67804e-11
-0.00845123
0.069228
8.45433e-11
-0.00845123
0.069228
5.82128e-11
-0.00845123
0.069228
5.82405e-12
-0.00845123
0.069228
-6.43426e-11
-0.00845123
-5.98936e-11
-0.00845123
0.0728292
4.99753e-11
-0.008544
0.0728292
-4.63838e-11
-0.008544
0.0728292
-7.26355e-11
-0.008544
0.0728292
8.09831e-13
-0.008544
0.0728292
8.83346e-11
-0.008544
0.0728292
1.24634e-10
-0.008544
0.0728292
1.32766e-12
-0.008544
0.0728292
-4.47157e-11
-0.008544
0.0728292
-5.7328e-11
-0.008544
-3.18056e-11
-0.008544
0.0765857
3.78579e-11
-0.00862142
0.0765857
-1.4027e-11
-0.00862142
0.0765857
-5.02367e-11
-0.00862142
0.0765857
5.067e-12
-0.00862142
0.0765857
4.30756e-11
-0.00862142
0.0765857
4.49339e-11
-0.00862142
0.0765857
-1.56574e-11
-0.00862142
0.0765857
-2.18522e-11
-0.00862142
0.0765857
-1.11127e-11
-0.00862142
-2.43589e-11
-0.00862142
0.0805035
4.37022e-11
-0.00868285
0.0805035
1.33812e-11
-0.00868285
0.0805035
-4.49887e-11
-0.00868285
0.0805035
3.51523e-12
-0.00868285
0.0805035
1.78455e-11
-0.00868285
0.0805035
-3.57348e-12
-0.00868285
0.0805035
-9.32965e-12
-0.00868285
0.0805035
-3.34787e-11
-0.00868285
0.0805035
-1.58601e-11
-0.00868285
8.19861e-12
-0.00868285
0.0845887
5.53276e-11
-0.00872779
0.0845887
1.83055e-11
-0.00872779
0.0845887
-4.85043e-11
-0.00872779
0.0845887
3.09696e-11
-0.00872779
0.0845887
2.80311e-12
-0.00872779
0.0845887
-7.08098e-11
-0.00872779
0.0845887
-2.51407e-11
-0.00872779
0.0845887
-6.74344e-11
-0.00872779
0.0845887
-1.16006e-11
-0.00872779
6.78956e-11
-0.00872779
0.0888474
3.08789e-11
-0.00875599
0.0888474
-3.973e-11
-0.00875599
0.0888474
-2.70642e-11
-0.00875599
0.0888474
4.36492e-11
-0.00875599
0.0888474
-9.6526e-11
-0.00875599
0.0888474
-1.40897e-10
-0.00875599
0.0888474
8.15945e-11
-0.00875599
0.0888474
-4.91767e-11
-0.00875599
0.0888474
-8.5371e-12
-0.00875599
1.73687e-10
-0.00875599
0.0932857
1.61785e-11
-0.00876751
0.0932857
-9.36242e-12
-0.00876751
0.0932857
6.43872e-12
-0.00876751
0.0932857
-4.47571e-11
-0.00876751
0.0932857
-8.43606e-11
-0.00876751
0.0932857
-4.29155e-11
-0.00876751
0.0932857
5.69008e-11
-0.00876751
0.0932857
-8.39145e-12
-0.00876751
0.0932857
6.28049e-12
-0.00876751
1.01387e-10
-0.00876751
0.0979098
-6.66474e-11
-0.0087627
0.0979098
6.20342e-12
-0.0087627
0.0979098
4.79077e-11
-0.0087627
0.0979098
-1.47051e-10
-0.0087627
0.0979098
-7.25259e-11
-0.0087627
0.0979098
8.95131e-11
-0.0087627
0.0979098
-2.47815e-11
-0.0087627
0.0979098
-2.45692e-12
-0.0087627
0.0979098
1.13595e-10
-0.0087627
4.47697e-11
-0.0087627
0.102726
-8.12666e-11
-0.00874237
0.102726
-6.72874e-12
-0.00874237
0.102726
5.36403e-12
-0.00874237
0.102726
-1.59292e-10
-0.00874237
0.102726
-3.95088e-11
-0.00874237
0.102726
3.40271e-11
-0.00874237
0.102726
-1.02201e-11
-0.00874237
0.102726
8.43492e-11
-0.00874237
0.102726
1.39173e-10
-0.00874237
4.55297e-11
-0.00874237
0.10774
-1.21764e-10
-0.00870774
0.10774
-4.61181e-11
-0.00870774
0.10774
1.401e-10
-0.00870774
0.10774
-5.80395e-11
-0.00870774
0.10774
-1.01935e-10
-0.00870774
0.10774
3.71438e-11
-0.00870774
0.10774
-2.3646e-11
-0.00870774
0.10774
1.83005e-11
-0.00870774
0.10774
1.04845e-10
-0.00870774
5.47641e-11
-0.00870774
0.112959
-4.61246e-11
-0.00866054
0.112959
3.18358e-11
-0.00866054
0.112959
8.06002e-11
-0.00866054
0.112959
-1.22412e-11
-0.00866054
0.112959
-3.72484e-11
-0.00866054
0.112959
1.39159e-11
-0.00866054
0.112959
-3.67907e-11
-0.00866054
0.112959
-1.02485e-11
-0.00866054
0.112959
4.1475e-11
-0.00866054
-2.3957e-11
-0.00866054
0.118389
1.4285e-11
-0.00860301
0.118389
1.19613e-10
-0.00860301
0.118389
-9.39043e-12
-0.00860301
0.118389
5.21454e-12
-0.00860301
0.118389
5.41676e-11
-0.00860301
0.118389
-1.70113e-11
-0.00860301
0.118389
-6.24635e-11
-0.00860301
0.118389
-4.30267e-13
-0.00860301
0.118389
-4.40485e-12
-0.00860301
-1.09766e-10
-0.00860301
0.124037
1.17362e-11
-0.00853791
0.124037
7.26439e-11
-0.00853791
0.124037
-2.16721e-11
-0.00853791
0.124037
5.19475e-11
-0.00853791
0.124037
1.52626e-10
-0.00853791
0.124037
-5.02618e-11
-0.00853791
0.124037
-6.39411e-11
-0.00853791
0.124037
2.26548e-11
-0.00853791
0.124037
-8.2405e-11
-0.00853791
-9.25503e-11
-0.00853791
0.12991
1.49163e-10
-0.00846849
0.12991
-3.67715e-11
-0.00846849
0.12991
-2.61846e-11
-0.00846849
0.12991
1.32158e-10
-0.00846849
0.12991
-4.81516e-12
-0.00846849
0.12991
-1.0437e-11
-0.00846849
0.12991
6.6364e-11
-0.00846849
0.12991
-7.48556e-11
-0.00846849
0.12991
-1.85607e-10
-0.00846849
-1.62542e-11
-0.00846849
0.136016
6.68519e-12
-0.00839845
0.136016
-5.51573e-11
-0.00839845
0.136016
1.827e-11
-0.00839845
0.136016
7.40846e-11
-0.00839845
0.136016
-8.01365e-11
-0.00839845
0.136016
-7.13183e-11
-0.00839845
0.136016
8.07365e-11
-0.00839845
0.136016
3.80998e-12
-0.00839845
0.136016
-3.65956e-11
-0.00839845
3.9613e-11
-0.00839845
0.142361
-5.96977e-11
-0.00833187
0.142361
4.61084e-11
-0.00833187
0.142361
3.80182e-11
-0.00833187
0.142361
-7.49482e-11
-0.00833187
0.142361
-2.68743e-12
-0.00833187
0.142361
5.21139e-11
-0.00833187
0.142361
-2.89125e-11
-0.00833187
0.142361
1.61904e-11
-0.00833187
0.142361
1.97335e-11
-0.00833187
-4.71848e-11
-0.00833187
0.148955
-1.50381e-10
-0.00827311
0.148955
-1.34978e-11
-0.00827311
0.148955
1.21556e-11
-0.00827311
0.148955
-1.94611e-11
-0.00827311
0.148955
1.05425e-10
-0.00827311
0.148955
2.62724e-11
-0.00827311
0.148955
-7.65272e-11
-0.00827311
0.148955
2.67762e-11
-0.00827311
0.148955
8.20781e-11
-0.00827311
-3.19154e-11
-0.00827311
0.155806
-6.71823e-11
-0.00822675
0.155806
-1.22409e-10
-0.00822675
0.155806
3.61891e-11
-0.00822675
0.155806
4.92115e-11
-0.00822675
0.155806
3.25907e-11
-0.00822675
0.155806
2.83987e-11
-0.00822675
0.155806
-1.83018e-11
-0.00822675
0.155806
-5.21564e-11
-0.00822675
0.155806
1.08216e-11
-0.00822675
7.7031e-11
-0.00822675
0.162925
3.84752e-12
-0.00819749
0.162925
-4.22978e-11
-0.00819749
0.162925
-1.47005e-11
-0.00819749
0.162925
1.84653e-11
-0.00819749
0.162925
-7.25259e-12
-0.00819749
0.162925
-6.14002e-11
-0.00819749
0.162925
-4.20374e-11
-0.00819749
0.162925
7.35235e-11
-0.00819749
0.162925
5.43443e-11
-0.00819749
6.58545e-12
-0.00819749
0.17032
5.30143e-11
-0.0081901
0.17032
7.20156e-13
-0.0081901
0.17032
-4.15263e-11
-0.0081901
0.17032
1.73244e-11
-0.0081901
0.17032
-3.55657e-11
-0.0081901
0.17032
2.24454e-11
-0.0081901
0.17032
3.61119e-11
-0.0081901
0.17032
-2.49462e-11
-0.0081901
0.17032
-2.07808e-11
-0.0081901
-2.01958e-11
-0.0081901
0.178004
-2.66031e-11
-0.00820948
0.178004
3.1378e-11
-0.00820948
0.178004
9.36476e-11
-0.00820948
0.178004
-4.00451e-11
-0.00820948
0.178004
-3.4052e-11
-0.00820948
0.178004
6.01492e-11
-0.00820948
0.178004
-2.58727e-11
-0.00820948
0.178004
-5.36413e-11
-0.00820948
0.178004
-6.95399e-12
-0.00820948
-8.87465e-12
-0.00820948
0.185986
2.91912e-11
-0.00826072
0.185986
-2.20711e-13
-0.00826072
0.185986
3.36509e-11
-0.00826072
0.185986
1.97945e-11
-0.00826072
0.185986
-7.32237e-12
-0.00826072
0.185986
-2.78171e-12
-0.00826072
0.185986
-3.40759e-12
-0.00826072
0.185986
-2.87403e-11
-0.00826072
0.185986
-5.23592e-11
-0.00826072
3.86635e-12
-0.00826072
0.19428
3.61884e-12
-0.00834926
0.19428
-9.91914e-12
-0.00834926
0.19428
1.28153e-11
-0.00834926
0.19428
5.02165e-11
-0.00834926
0.19428
2.76514e-11
-0.00834926
0.19428
-2.70362e-11
-0.00834926
0.19428
-2.20325e-13
-0.00834926
0.19428
-1.10155e-11
-0.00834926
0.19428
-3.84648e-11
-0.00834926
-7.2729e-12
-0.00834926
0.202896
7.82475e-12
-0.00848121
0.202896
-2.34439e-12
-0.00848121
0.202896
-3.16797e-13
-0.00848121
0.202896
6.24149e-11
-0.00848121
0.202896
2.34743e-11
-0.00848121
0.202896
-5.40361e-11
-0.00848121
0.202896
3.34857e-11
-0.00848121
0.202896
-3.13452e-11
-0.00848121
0.202896
-6.03469e-11
-0.00848121
2.15531e-11
-0.00848121
0.211845
-2.48018e-12
-0.00866379
0.211845
2.74782e-11
-0.00866379
0.211845
-1.40811e-11
-0.00866379
0.211845
-2.43458e-11
-0.00866379
0.211845
-1.31463e-11
-0.00866379
0.211845
-8.67008e-12
-0.00866379
0.211845
1.80395e-11
-0.00866379
0.211845
2.98429e-11
-0.00866379
0.211845
2.28636e-12
-0.00866379
-2.14591e-11
-0.00866379
0.221138
-7.08334e-12
-0.00890591
0.221138
9.71741e-12
-0.00890591
0.221138
-3.89987e-11
-0.00890591
0.221138
-1.35106e-11
-0.00890591
0.221138
5.13786e-11
-0.00890591
0.221138
2.88054e-11
-0.00890591
0.221138
-3.54636e-11
-0.00890591
0.221138
8.35275e-12
-0.00890591
0.221138
2.94078e-11
-0.00890591
-2.5202e-11
-0.00890591
0.230785
-0.00921911
0.230785
-0.00921911
0.230785
-0.00921911
0.230785
-0.00921911
0.230785
-0.00921911
0.230785
-0.00921911
0.230785
-0.00921911
0.230785
-0.00921911
0.230785
-0.00921911
-0.00921911
0.0109799
3.94337e-11
-0.00270004
0.0109799
-9.07094e-12
-0.00270004
0.0109799
1.22546e-11
-0.00270004
0.0109799
-4.77403e-12
-0.00270004
0.0109799
-3.94445e-11
-0.00270004
0.0109799
-1.39846e-11
-0.00270004
0.0109799
2.6904e-11
-0.00270004
0.0109799
4.85645e-12
-0.00270004
0.0109799
-3.85528e-11
-0.00270004
2.66675e-11
-0.00270004
0.0150815
3.82398e-11
-0.00355437
0.0150815
-1.96205e-12
-0.00355437
0.0150815
5.27658e-12
-0.00355437
0.0150815
-1.76105e-11
-0.00355437
0.0150815
-4.25087e-11
-0.00355437
0.0150815
-1.82429e-11
-0.00355437
0.0150815
3.0985e-11
-0.00355437
0.0150815
-1.60511e-11
-0.00355437
0.0150815
-3.00368e-11
-0.00355437
5.15042e-11
-0.00355437
0.017778
1.80436e-11
-0.00405256
0.017778
-7.04439e-12
-0.00405256
0.017778
3.20805e-12
-0.00405256
0.017778
-5.77839e-11
-0.00405256
0.017778
-2.09967e-11
-0.00405256
0.017778
7.34899e-12
-0.00405256
0.017778
3.07634e-11
-0.00405256
0.017778
-4.2127e-11
-0.00405256
0.017778
-3.06853e-11
-0.00405256
9.33771e-11
-0.00405256
0.0200032
-4.1969e-12
-0.00442763
0.0200032
-1.01199e-11
-0.00442763
0.0200032
-7.15917e-12
-0.00442763
0.0200032
-9.71992e-11
-0.00442763
0.0200032
1.28642e-11
-0.00442763
0.0200032
4.00903e-11
-0.00442763
0.0200032
9.33544e-12
-0.00442763
0.0200032
-6.61036e-11
-0.00442763
0.0200032
-1.42876e-11
-0.00442763
1.32006e-10
-0.00442763
0.0220311
-1.85549e-11
-0.00474457
0.0220311
-2.47006e-11
-0.00474457
0.0220311
-1.34132e-11
-0.00474457
0.0220311
-7.32729e-11
-0.00474457
0.0220311
1.45152e-11
-0.00474457
0.0220311
3.29413e-11
-0.00474457
0.0220311
-2.94698e-12
-0.00474457
0.0220311
-2.96656e-11
-0.00474457
0.0220311
1.72353e-11
-0.00474457
1.00805e-10
-0.00474457
0.0239754
-5.46117e-12
-0.00502894
0.0239754
-6.11597e-11
-0.00502894
0.0239754
-1.01943e-12
-0.00502894
0.0239754
-3.8794e-11
-0.00502894
0.0239754
-1.629e-11
-0.00502894
0.0239754
3.93201e-11
-0.00502894
0.0239754
-1.70306e-11
-0.00502894
0.0239754
-7.08872e-12
-0.00502894
0.0239754
3.71499e-11
-0.00502894
7.52553e-11
-0.00502894
0.025894
2.52277e-12
-0.00529286
0.025894
-8.69493e-11
-0.00529286
0.025894
1.81807e-12
-0.00529286
0.025894
-2.1677e-11
-0.00529286
0.025894
-3.48197e-11
-0.00529286
0.025894
7.74061e-11
-0.00529286
0.025894
1.13688e-11
-0.00529286
0.025894
-4.57277e-11
-0.00529286
0.025894
1.11743e-11
-0.00529286
8.27598e-11
-0.00529286
0.0278205
7.78742e-12
-0.00554272
0.0278205
-6.94111e-11
-0.00554272
0.0278205
-5.58309e-11
-0.00554272
0.0278205
-8.77665e-12
-0.00554272
0.0278205
4.2235e-12
-0.00554272
0.0278205
7.61526e-11
-0.00554272
0.0278205
-2.57325e-11
-0.00554272
0.0278205
-3.47363e-11
-0.00554272
0.0278205
5.94146e-11
-0.00554272
4.43241e-11
-0.00554272
0.0297769
9.81146e-13
-0.00578218
0.0297769
-7.7742e-11
-0.00578218
0.0297769
-8.86349e-11
-0.00578218
0.0297769
3.28086e-11
-0.00578218
0.0297769
6.16512e-11
-0.00578218
0.0297769
4.10101e-11
-0.00578218
0.0297769
-7.69794e-11
-0.00578218
0.0297769
-6.44508e-13
-0.00578218
0.0297769
1.01871e-10
-0.00578218
6.90067e-12
-0.00578218
0.0317788
-1.43671e-11
-0.00601334
0.0317788
-4.94993e-11
-0.00601334
0.0317788
-5.58594e-11
-0.00601334
0.0317788
3.44835e-12
-0.00601334
0.0317788
4.06539e-11
-0.00601334
0.0317788
1.07531e-11
-0.00601334
0.0317788
-6.07955e-11
-0.00601334
0.0317788
2.78796e-11
-0.00601334
0.0317788
9.56082e-11
-0.00601334
7.982e-12
-0.00601334
0.0338381
-4.65315e-11
-0.00623741
0.0338381
-2.90252e-11
-0.00623741
0.0338381
-2.55098e-11
-0.00623741
0.0338381
-2.59311e-11
-0.00623741
0.0338381
3.32562e-11
-0.00623741
0.0338381
-2.05092e-11
-0.00623741
0.0338381
-1.31244e-11
-0.00623741
0.0338381
8.29884e-11
-0.00623741
0.0338381
6.26122e-11
-0.00623741
-1.91604e-13
-0.00623741
0.0359646
-9.63345e-11
-0.00645502
0.0359646
1.24473e-11
-0.00645502
0.0359646
2.41485e-11
-0.00645502
0.0359646
-6.20532e-11
-0.00645502
0.0359646
-2.42717e-13
-0.00645502
0.0359646
1.87539e-11
-0.00645502
0.0359646
2.67002e-11
-0.00645502
0.0359646
6.35335e-11
-0.00645502
0.0359646
6.84028e-11
-0.00645502
-1.1925e-11
-0.00645502
0.0381665
-9.26826e-11
-0.00666638
0.0381665
-3.2631e-11
-0.00666638
0.0381665
3.56372e-11
-0.00666638
0.0381665
-2.62831e-11
-0.00666638
0.0381665
-3.40288e-11
-0.00666638
0.0381665
5.85206e-11
-0.00666638
0.0381665
8.98444e-11
-0.00666638
0.0381665
6.41122e-11
-0.00666638
0.0381665
3.77949e-11
-0.00666638
-4.12457e-11
-0.00666638
0.0404511
-5.072e-11
-0.00687143
0.0404511
-1.65453e-11
-0.00687143
0.0404511
-6.68562e-11
-0.00687143
0.0404511
-2.39294e-12
-0.00687143
0.0404511
3.06697e-12
-0.00687143
0.0404511
8.38141e-11
-0.00687143
0.0404511
1.2578e-10
-0.00687143
0.0404511
4.56002e-11
-0.00687143
0.0404511
1.73897e-11
-0.00687143
-8.02981e-11
-0.00687143
0.0428253
-4.46797e-12
-0.00706991
0.0428253
-7.19242e-11
-0.00706991
0.0428253
-1.37553e-10
-0.00706991
0.0428253
6.04865e-11
-0.00706991
0.0428253
2.58396e-11
-0.00706991
0.0428253
7.70249e-11
-0.00706991
0.0428253
1.91578e-10
-0.00706991
0.0428253
4.31227e-11
-0.00706991
0.0428253
-5.51187e-11
-0.00706991
-8.78299e-11
-0.00706991
0.0452955
1.3407e-11
-0.00726135
0.0452955
-8.87535e-11
-0.00726135
0.0452955
-1.1599e-10
-0.00726135
0.0452955
2.27621e-11
-0.00726135
0.0452955
5.4465e-11
-0.00726135
0.0452955
8.80648e-11
-0.00726135
0.0452955
1.3919e-10
-0.00726135
0.0452955
7.46581e-11
-0.00726135
0.0452955
-7.86978e-11
-0.00726135
-7.03355e-11
-0.00726135
0.0478678
5.90076e-11
-0.00744517
0.0478678
-4.7664e-11
-0.00744517
0.0478678
-7.78297e-11
-0.00744517
0.0478678
1.15792e-11
-0.00744517
0.0478678
4.87251e-11
-0.00744517
0.0478678
6.99889e-11
-0.00744517
0.0478678
9.56922e-11
-0.00744517
0.0478678
7.01629e-11
-0.00744517
0.0478678
-1.07132e-10
-0.00744517
-8.39262e-11
-0.00744517
0.0505481
3.75042e-11
-0.00762068
0.0505481
-3.17454e-11
-0.00762068
0.0505481
-2.64436e-11
-0.00762068
0.0505481
1.12219e-11
-0.00762068
0.0505481
1.87849e-11
-0.00762068
0.0505481
4.44878e-11
-0.00762068
0.0505481
5.36107e-11
-0.00762068
0.0505481
5.1968e-11
-0.00762068
0.0505481
-5.9503e-11
-0.00762068
-5.73672e-11
-0.00762068
0.0533424
-6.15118e-12
-0.00778709
0.0533424
-2.88186e-11
-0.00778709
0.0533424
-1.11629e-11
-0.00778709
0.0533424
1.75366e-11
-0.00778709
0.0533424
2.35006e-11
-0.00778709
0.0533424
2.63372e-12
-0.00778709
0.0533424
2.05845e-11
-0.00778709
0.0533424
2.59482e-11
-0.00778709
0.0533424
-1.97761e-11
-0.00778709
6.03059e-12
-0.00778709
0.0562564
-6.93844e-11
-0.00794353
0.0562564
-3.70334e-11
-0.00794353
0.0562564
5.20071e-11
-0.00794353
0.0562564
1.42012e-11
-0.00794353
0.0562564
-5.88015e-11
-0.00794353
0.0562564
-3.45276e-11
-0.00794353
0.0562564
4.50936e-11
-0.00794353
0.0562564
1.05756e-11
-0.00794353
0.0562564
2.47948e-11
-0.00794353
7.4983e-11
-0.00794353
0.0592962
-1.29993e-10
-0.00808911
0.0592962
-4.81242e-11
-0.00808911
0.0592962
1.19745e-10
-0.00808911
0.0592962
2.5289e-11
-0.00808911
0.0592962
-1.28857e-10
-0.00808911
0.0592962
-1.07607e-10
-0.00808911
0.0592962
5.12594e-11
-0.00808911
0.0592962
1.52655e-11
-0.00808911
0.0592962
9.19428e-11
-0.00808911
1.1661e-10
-0.00808911
0.0624674
-3.43476e-11
-0.00822288
0.0624674
-5.6695e-11
-0.00822288
0.0624674
1.04973e-10
-0.00822288
0.0624674
1.96307e-11
-0.00822288
0.0624674
-9.85837e-11
-0.00822288
0.0624674
-2.10597e-11
-0.00822288
0.0624674
3.76091e-11
-0.00822288
0.0624674
-5.27443e-11
-0.00822288
0.0624674
1.33674e-11
-0.00822288
1.05181e-10
-0.00822288
0.065776
2.34645e-11
-0.0083439
0.065776
-3.1693e-11
-0.0083439
0.065776
8.70283e-11
-0.0083439
0.065776
-2.83781e-11
-0.0083439
0.065776
-6.20507e-11
-0.0083439
0.065776
4.09531e-11
-0.0083439
0.065776
1.65125e-11
-0.0083439
0.065776
-3.23168e-11
-0.0083439
0.065776
-4.88635e-11
-0.0083439
5.14397e-11
-0.0083439
0.069228
7.48032e-11
-0.00845123
0.069228
-2.68969e-13
-0.00845123
0.069228
5.30429e-11
-0.00845123
0.069228
-6.67464e-12
-0.00845123
0.069228
-3.20152e-11
-0.00845123
0.069228
3.17324e-11
-0.00845123
0.069228
2.62249e-11
-0.00845123
0.069228
-6.00112e-11
-0.00845123
0.069228
-1.07802e-10
-0.00845123
6.80218e-11
-0.00845123
0.0728292
5.19611e-11
-0.008544
0.0728292
1.95581e-11
-0.008544
0.0728292
2.50153e-11
-0.008544
0.0728292
1.85718e-11
-0.008544
0.0728292
5.72913e-12
-0.008544
0.0728292
5.16178e-11
-0.008544
0.0728292
-8.31053e-12
-0.008544
0.0728292
-8.1372e-11
-0.008544
0.0728292
-6.09495e-11
-0.008544
3.56204e-11
-0.008544
0.0765857
3.71699e-11
-0.00862142
0.0765857
2.91997e-11
-0.00862142
0.0765857
4.91433e-12
-0.00862142
0.0765857
3.69004e-11
-0.00862142
0.0765857
3.8697e-11
-0.00862142
0.0765857
2.64735e-11
-0.00862142
0.0765857
-3.54939e-11
-0.00862142
0.0765857
-6.36608e-11
-0.00862142
0.0765857
-3.46355e-11
-0.00862142
1.93634e-11
-0.00862142
0.0805035
3.71659e-11
-0.00868285
0.0805035
4.69815e-11
-0.00868285
0.0805035
-1.05942e-11
-0.00868285
0.0805035
5.2358e-11
-0.00868285
0.0805035
7.66832e-11
-0.00868285
0.0805035
-1.63983e-11
-0.00868285
0.0805035
-7.79165e-11
-0.00868285
0.0805035
-6.15258e-11
-0.00868285
0.0805035
-9.73445e-12
-0.00868285
1.2881e-11
-0.00868285
0.0845887
6.22727e-11
-0.00872779
0.0845887
7.44945e-11
-0.00872779
0.0845887
-6.80008e-11
-0.00872779
0.0845887
1.07396e-10
-0.00872779
0.0845887
1.19897e-10
-0.00872779
0.0845887
-9.6916e-11
-0.00872779
0.0845887
-1.21697e-10
-0.00872779
0.0845887
-5.00361e-11
-0.00872779
0.0845887
2.85545e-11
-0.00872779
3.00745e-12
-0.00872779
0.0888474
6.40257e-11
-0.00875599
0.0888474
2.40478e-11
-0.00875599
0.0888474
-6.57222e-11
-0.00875599
0.0888474
7.17552e-11
-0.00875599
0.0888474
-7.80953e-12
-0.00875599
0.0888474
-1.03606e-10
-0.00875599
0.0888474
-5.84681e-11
-0.00875599
0.0888474
3.37587e-11
-0.00875599
0.0888474
7.8645e-11
-0.00875599
1.75843e-11
-0.00875599
0.0932857
8.89623e-11
-0.00876751
0.0932857
5.06061e-11
-0.00876751
0.0932857
-1.76752e-11
-0.00876751
0.0932857
-3.01127e-11
-0.00876751
0.0932857
-1.24047e-10
-0.00876751
0.0932857
-8.77497e-11
-0.00876751
0.0932857
1.24218e-10
-0.00876751
0.0932857
8.17528e-11
-0.00876751
0.0932857
-4.83136e-11
-0.00876751
2.28966e-11
-0.00876751
0.0979098
5.43457e-11
-0.00876271
0.0979098
1.08826e-10
-0.0087627
0.0979098
3.54454e-12
-0.0087627
0.0979098
-1.2618e-10
-0.0087627
0.0979098
-8.70346e-11
-0.0087627
0.0979098
3.23723e-11
-0.0087627
0.0979098
3.59035e-11
-0.0087627
0.0979098
8.53035e-11
-0.0087627
0.0979098
1.02752e-11
-0.0087627
-5.36342e-11
-0.0087627
0.102726
-3.63993e-11
-0.00874237
0.102726
-2.33901e-11
-0.00874237
0.102726
-1.97236e-11
-0.00874237
0.102726
-1.12223e-10
-0.00874237
0.102726
2.94813e-11
-0.00874237
0.102726
1.35873e-10
-0.00874237
0.102726
-5.72967e-11
-0.00874237
0.102726
-5.54206e-11
-0.00874237
0.102726
8.95703e-11
-0.00874237
8.77465e-11
-0.00874237
0.10774
-5.44153e-11
-0.00870774
0.10774
-2.94873e-11
-0.00870774
0.10774
-6.08342e-11
-0.00870774
0.10774
-3.04207e-12
-0.00870774
0.10774
6.73652e-11
-0.00870774
0.10774
8.31521e-11
-0.00870774
0.10774
-1.00455e-10
-0.00870774
0.10774
-7.73796e-11
-0.00870774
0.10774
1.40633e-10
-0.00870774
4.14443e-11
-0.00870774
0.112959
-5.506e-11
-0.00866054
0.112959
1.02866e-10
-0.00866054
0.112959
-3.43469e-11
-0.00866054
0.112959
-7.16107e-11
-0.00866054
0.112959
1.13959e-10
-0.00866054
0.112959
4.68877e-11
-0.00866054
0.112959
-3.46515e-11
-0.00866054
0.112959
-3.82308e-11
-0.00866054
0.112959
1.26646e-11
-0.00866054
-2.91555e-11
-0.00866054
0.118389
5.38632e-11
-0.00860301
0.118389
1.90506e-11
-0.00860301
0.118389
-1.38002e-11
-0.00860301
0.118389
-2.39352e-12
-0.00860301
0.118389
3.32909e-11
-0.00860301
0.118389
-3.00816e-11
-0.00860301
0.118389
5.66151e-11
-0.00860301
0.118389
2.39377e-12
-0.00860301
0.118389
-1.36889e-10
-0.00860301
3.70631e-11
-0.00860301
0.124037
2.30868e-11
-0.00853791
0.124037
2.0738e-11
-0.00853791
0.124037
3.74016e-11
-0.00853791
0.124037
3.1231e-11
-0.00853791
0.124037
-2.57237e-11
-0.00853791
0.124037
-2.40165e-11
-0.00853791
0.124037
2.7535e-11
-0.00853791
0.124037
1.03931e-11
-0.00853791
0.124037
-5.95742e-11
-0.00853791
-1.95364e-11
-0.00853791
0.12991
3.87239e-11
-0.00846849
0.12991
-3.47285e-11
-0.00846849
0.12991
5.63011e-11
-0.00846849
0.12991
1.25279e-10
-0.00846849
0.12991
-1.13767e-10
-0.00846849
0.12991
-9.95323e-11
-0.00846849
0.12991
1.0565e-10
-0.00846849
0.12991
3.73041e-11
-0.00846849
0.12991
-6.97422e-11
-0.00846849
-2.00667e-11
-0.00846849
0.136016
-2.8093e-11
-0.00839845
0.136016
-8.71964e-11
-0.00839845
0.136016
4.50234e-11
-0.00839845
0.136016
6.24783e-11
-0.00839845
0.136016
-4.68234e-11
-0.00839845
0.136016
2.83691e-12
-0.00839845
0.136016
5.55723e-11
-0.00839845
0.136016
1.03116e-11
-0.00839845
0.136016
-2.32854e-11
-0.00839845
6.44961e-12
-0.00839845
0.142361
-1.24854e-10
-0.00833187
0.142361
-1.30851e-12
-0.00833187
0.142361
9.31008e-11
-0.00833187
0.142361
-7.99462e-11
-0.00833187
0.142361
3.27573e-11
-0.00833187
0.142361
1.24319e-10
-0.00833187
0.142361
-3.40266e-11
-0.00833187
0.142361
-9.58776e-12
-0.00833187
0.142361
2.7536e-11