/*--------------------------------*- C++ -*----------------------------------*\
| =========                 |                                                 |
| \\      /  F ield         | foam-extend: Open Source CFD                    |
|  \\    /   O peration     | Version:     3.2                                |
|   \\  /    A nd           | Web:         http://www.foam-extend.org         |
|    \\/     M anipulation  | For copyright notice see file Copyright         |
\*---------------------------------------------------------------------------*/
FoamFile
{
    version     2.0;
    format      ascii;
    class       volScalarField;
    location    "200000";
    object      Uz;
}
// * * * * * * * * * * * * * * * * * * * * * * * * * * * * * * * * * * * * * //

dimensions      [0 1 -1 0 0 0 0];

internalField   nonuniform List<scalar> 
5000
(
1.82619e-09
-2.86675e-09
-1.69362e-09
6.36231e-10
-3.53671e-11
-1.27854e-09
1.67213e-10
2.05541e-09
-5.37188e-10
9.4506e-10
2.40336e-09
-7.62438e-09
-2.20332e-09
2.17575e-09
-1.14932e-09
-1.18048e-09
1.5738e-09
4.52318e-10
-7.21874e-10
5.02505e-09
-1.46087e-09
-9.47027e-09
-6.15606e-10
2.99842e-09
-5.12537e-09
5.15528e-10
5.6275e-09
-6.40208e-09
4.72336e-10
1.03908e-08
-5.93626e-09
-8.63171e-09
4.94191e-09
2.69374e-09
-8.42747e-09
-7.78809e-10
7.00077e-09
-6.11283e-09
6.61912e-11
1.12822e-08
-6.37054e-09
-6.22538e-09
1.09733e-08
1.45502e-09
-1.24085e-08
-4.70938e-09
1.1779e-08
-4.80511e-11
-3.20172e-09
6.72176e-09
-3.43771e-09
-1.59698e-09
1.18036e-08
-1.83289e-09
-1.38065e-08
-4.63607e-09
1.29189e-08
-1.52177e-10
-5.43012e-09
3.77307e-09
1.34063e-09
1.48441e-09
1.02806e-08
-6.84307e-09
-1.11018e-08
1.8085e-09
9.22461e-09
-3.40927e-09
-8.30887e-09
4.01513e-09
4.32792e-09
3.34968e-09
7.13551e-09
-7.35735e-09
-7.40281e-09
6.64379e-09
3.97631e-09
-5.10524e-09
-7.19942e-09
1.21908e-09
4.59172e-09
5.33576e-09
5.37893e-09
-7.44128e-09
-6.67217e-09
9.20141e-09
-2.20968e-09
-3.51991e-09
-1.81083e-09
-3.96243e-09
3.84175e-09
6.30446e-09
3.5003e-09
-4.70637e-09
-4.61857e-09
6.20808e-09
-4.28857e-09
-3.80776e-10
3.87615e-09
-8.04155e-09
2.04854e-09
4.14018e-09
1.75527e-10
-2.67236e-09
-2.53631e-09
5.10232e-09
-6.50906e-09
-9.23733e-10
7.12887e-09
-4.50754e-09
-9.04657e-10
1.33203e-09
-4.50928e-09
-1.47662e-09
2.19045e-09
2.32521e-09
-5.95449e-09
-3.49737e-09
1.13615e-08
1.91826e-09
-5.85614e-10
-1.71543e-10
-7.92126e-09
8.22242e-10
8.33599e-09
-1.61184e-09
-4.12242e-09
6.49704e-10
8.62448e-09
5.67111e-10
-2.08267e-09
-1.56838e-09
-1.03524e-08
3.12947e-10
1.02519e-08
-1.72794e-09
-1.86772e-10
7.36124e-09
4.53591e-09
-3.0603e-09
-7.79468e-09
-2.59613e-09
-6.66713e-09
-3.19749e-09
8.95019e-09
1.69478e-09
2.97511e-09
8.65427e-09
3.24562e-09
-4.43024e-09
-9.83854e-09
3.99594e-09
-8.5645e-09
-8.79661e-09
5.81405e-09
7.7725e-09
8.38616e-09
5.25646e-09
2.75247e-09
-8.87334e-09
-7.99893e-09
5.74746e-09
-8.48706e-09
-1.21527e-08
8.19804e-09
9.07529e-09
8.43028e-09
6.61969e-09
-2.27547e-09
-1.03944e-08
2.62351e-09
7.94702e-10
-5.51439e-09
-5.42849e-09
5.41386e-09
1.52184e-09
1.27802e-09
8.73216e-09
-6.25337e-09
-5.72095e-09
7.06103e-09
-3.59431e-09
-3.39104e-09
1.36705e-10
2.18948e-09
-5.61434e-09
-4.85071e-09
9.30344e-09
-2.70787e-09
-1.73293e-09
1.51418e-09
-4.21296e-09
1.51179e-09
5.92115e-09
-4.14985e-09
-1.0093e-08
-6.09443e-09
7.44664e-09
3.1679e-09
2.30902e-09
-6.03912e-09
-6.99101e-09
2.53609e-09
4.76015e-09
-6.52344e-09
-6.60582e-09
2.58491e-09
1.9261e-09
5.95567e-09
6.53876e-09
-2.25401e-09
-5.52751e-09
-3.34515e-09
4.80132e-09
-8.93932e-09
-1.75458e-09
1.03207e-08
5.68327e-10
4.27011e-09
2.43214e-09
6.59766e-09
-3.5565e-09
-7.83152e-09
3.46491e-09
-2.6543e-09
5.5097e-10
1.28713e-08
3.7978e-09
-3.30533e-09
-7.17657e-09
8.65594e-09
-6.1749e-09
-1.13839e-08
5.95347e-09
5.99762e-09
6.91275e-09
7.42374e-09
3.43433e-09
-6.60588e-09
-1.0216e-08
5.79615e-09
-5.36763e-09
-7.97051e-09
1.11875e-09
8.60136e-09
1.21049e-08
2.36336e-09
-2.92043e-09
-6.60123e-09
-4.4309e-09
3.91833e-09
-3.32308e-09
-5.97402e-09
3.9981e-10
7.59357e-09
9.16135e-09
-1.54122e-09
-3.83684e-09
-3.5761e-09
-2.65197e-09
4.07712e-09
1.3388e-10
-4.69402e-09
2.27522e-10
2.40375e-09
1.19229e-09
-1.04069e-09
-1.64093e-09
-8.28166e-10
-1.04609e-09
5.16556e-09
1.66078e-09
-4.36062e-09
1.41526e-09
1.03376e-09
-2.5001e-09
-1.81889e-09
-6.25164e-09
-2.1615e-09
3.23895e-09
4.4836e-09
-1.16969e-09
-3.8316e-09
4.79495e-09
-5.24436e-09
-1.22808e-08
1.48774e-09
-6.83739e-09
1.15294e-10
1.33923e-08
3.22575e-09
-2.06791e-09
-1.79467e-09
8.50448e-10
-9.78958e-09
-1.18631e-08
9.09233e-09
-1.9313e-09
-1.0811e-09
1.50932e-08
-2.55241e-09
3.07141e-10
3.13679e-09
-1.01449e-08
-6.98349e-09
3.68237e-09
1.01506e-09
-9.78224e-10
4.46537e-09
6.33755e-09
-8.24742e-09
1.7012e-10
3.75942e-09
-1.84156e-08
-5.94843e-09
8.29756e-09
-1.94466e-09
4.68784e-09
1.51441e-08
3.46747e-09
-1.08808e-08
-3.14954e-09
4.522e-09
-1.0595e-08
-7.82734e-09
3.01278e-09
-1.75589e-09
6.55276e-09
1.37857e-08
7.28728e-09
-8.04442e-09
-4.69543e-09
1.37132e-08
-1.43558e-09
-8.0923e-09
2.59313e-09
-2.42781e-09
-7.48514e-10
6.73854e-09
2.50197e-09
-1.37484e-09
1.06963e-08
4.03832e-09
-8.54732e-10
6.78194e-11
-1.28641e-10
-4.70174e-09
-8.88937e-10
1.43797e-09
-8.5725e-09
-1.24603e-09
1.15506e-08
-1.83021e-09
1.9402e-09
1.31043e-08
-3.24283e-09
-7.97872e-09
9.64277e-10
-3.55792e-09
-1.06269e-08
9.08603e-09
1.22354e-09
-2.64307e-09
9.50776e-09
9.74973e-09
-2.35374e-09
-1.00299e-09
-2.50495e-09
-1.58867e-08
-6.08707e-09
1.21014e-08
-5.2283e-09
-1.65137e-09
1.31606e-08
-6.0737e-09
-5.27528e-09
9.92714e-09
-3.57034e-09
-1.24335e-08
2.83252e-10
-3.45102e-09
-8.15571e-10
2.79537e-09
-1.64306e-09
-5.77961e-09
-3.42319e-09
3.47164e-09
2.15371e-09
6.15571e-10
1.45347e-09
-1.42217e-08
2.79429e-09
4.52599e-09
-5.7611e-09
4.10506e-09
7.44456e-09
-7.38954e-09
1.88367e-09
6.28409e-09
-4.35913e-09
-1.00567e-08
-7.75988e-09
1.29462e-09
8.62318e-10
9.69443e-09
3.2436e-09
-3.45081e-09
-2.62729e-09
4.17034e-09
1.22118e-09
-2.98119e-09
-9.82763e-09
1.29083e-09
5.51657e-09
2.09192e-09
-2.92315e-09
-4.32088e-09
9.20682e-10
3.07594e-09
6.47665e-09
3.65837e-09
-1.12894e-09
-4.65884e-09
1.05591e-09
-3.43975e-09
-3.27108e-09
-7.80606e-10
5.02177e-09
3.58676e-09
-9.4813e-10
1.53246e-09
2.27734e-09
3.35693e-09
-1.12358e-09
-3.89675e-09
4.7186e-09
2.81096e-09
-5.29221e-09
-3.16087e-09
-2.31202e-09
-7.87328e-10
2.08592e-09
8.7972e-09
-1.69178e-09
-2.84018e-09
4.44233e-09
-2.97475e-09
-5.42267e-09
-2.49577e-09
6.06697e-11
2.31729e-09
-9.72739e-10
6.08193e-10
3.47292e-09
1.43573e-09
-1.80636e-09
3.53506e-10
-9.93586e-10
-4.57574e-09
-4.08668e-10
6.79475e-10
-1.29995e-09
8.09751e-10
6.79283e-09
3.72276e-09
-5.02726e-09
1.31229e-09
-2.03807e-09
-5.56206e-09
1.00321e-09
-1.49373e-11
1.6315e-09
-4.14264e-12
2.65007e-09
-3.1179e-10
-4.31623e-09
3.11953e-09
-7.70771e-11
-3.45836e-09
-3.70785e-10
-1.7199e-10
2.69077e-09
-3.95243e-09
-3.61967e-09
2.01894e-09
2.77634e-09
-1.46593e-09
1.92788e-09
2.45831e-09
-2.36569e-09
-3.33232e-10
2.61657e-10
-1.44542e-09
-5.78333e-10
2.72844e-09
1.82909e-09
-1.21531e-09
-5.74734e-10
1.27683e-09
-4.45171e-10
2.60806e-09
3.34635e-10
8.2268e-10
5.91323e-11
-2.10632e-09
-1.5982e-09
1.43343e-09
1.27238e-09
-1.78785e-09
6.89136e-10
4.37961e-09
3.53277e-10
4.36082e-10
-7.85084e-10
-3.80243e-09
-2.60985e-09
3.09953e-09
-2.91347e-13
-3.45301e-09
3.05786e-09
3.11878e-09
-7.85585e-10
3.07093e-10
-3.83284e-09
-3.49057e-09
-1.18596e-09
3.0281e-09
-2.89208e-09
-3.14849e-09
7.36902e-09
9.47365e-10
-5.75445e-10
9.71851e-11
-8.42547e-09
-4.85242e-10
3.05418e-09
2.28136e-09
-6.32198e-09
-1.91647e-09
1.15608e-08
-1.64281e-09
-1.53398e-09
-1.01577e-09
-8.60763e-09
1.41275e-09
4.17758e-09
4.99111e-10
-5.03378e-09
-1.40839e-09
1.27742e-08
-1.22889e-09
-4.21371e-09
-8.05692e-10
-6.45871e-09
8.15372e-10
4.04313e-09
-1.946e-09
-1.08616e-09
3.33544e-09
8.54142e-09
-3.8459e-11
-7.91565e-09
3.78605e-10
-2.22794e-09
-3.18096e-09
4.74009e-09
5.38456e-10
-2.90688e-09
3.20725e-09
7.52602e-09
3.44305e-10
-8.40534e-09
-2.33774e-09
-1.24994e-09
-3.12714e-09
8.62104e-09
2.43405e-10
-4.26499e-09
2.31107e-09
7.06658e-09
7.43626e-10
-7.00151e-09
-7.75714e-09
1.27283e-09
4.26179e-09
6.05043e-09
-6.24464e-09
-1.67542e-09
8.44376e-09
2.08469e-09
-2.17127e-10
-6.55976e-09
-8.72085e-09
2.37402e-09
6.21828e-09
2.34813e-09
-7.32753e-09
5.15646e-10
1.06088e-08
6.69536e-10
-2.97259e-09
-3.77195e-09
-4.07145e-09
-7.08056e-10
3.51965e-09
-1.17323e-09
-3.6514e-09
5.62774e-09
8.36549e-09
2.13581e-11
-7.44609e-09
-5.94461e-10
8.80819e-10
-6.24869e-09
1.73869e-09
7.13631e-11
-2.18667e-10
8.63932e-09
6.3389e-09
1.98456e-10
-1.01541e-08
-1.0886e-09
3.91897e-09
-4.457e-09
-2.29322e-09
4.15677e-09
5.4071e-09
6.12567e-09
5.78794e-09
-2.67259e-09
-7.48825e-09
-2.84194e-09
-1.53208e-10
-9.42829e-10
-2.15124e-09
6.81235e-09
1.13618e-08
5.19017e-09
2.98013e-09
-5.67812e-09
-3.41171e-09
-3.35908e-09
-1.11987e-08
2.79605e-09
1.49466e-09
8.93711e-09
1.6576e-08
3.98994e-09
-1.90489e-09
-9.08535e-09
1.53575e-09
-9.54077e-09
-1.51425e-08
5.38461e-09
4.99861e-09
6.72281e-09
1.7829e-08
6.61964e-09
-6.89532e-09
-7.93468e-09
2.91431e-09
-6.45821e-09
-9.42327e-09
1.45385e-09
5.45293e-09
8.83742e-09
1.19126e-08
7.86295e-09
-1.05501e-08
-8.00533e-09
6.2098e-09
-3.22101e-09
-4.83714e-09
3.18518e-10
3.45982e-09
6.41623e-09
7.3765e-09
6.39142e-09
-8.84623e-09
-8.9612e-09
1.8543e-09
-2.72736e-09
-2.01199e-09
8.73919e-10
2.05021e-09
3.34147e-09
3.4709e-09
3.4075e-09
-3.97753e-09
-2.72427e-09
-3.78679e-09
-3.15546e-09
1.80245e-09
2.03014e-09
-9.65978e-10
-1.81659e-09
2.95738e-09
1.11327e-09
1.76415e-10
3.9345e-09
-1.21698e-08
-4.29236e-09
8.7018e-09
2.34721e-09
-1.07477e-08
-8.23224e-09
4.12996e-09
1.92773e-09
6.98887e-09
1.26075e-08
-7.41469e-09
-7.30139e-09
1.27889e-08
3.78594e-09
-1.23679e-08
-9.11812e-09
4.55842e-09
-1.66411e-09
6.97937e-09
1.13363e-08
-4.14184e-10
-3.99554e-09
9.62558e-09
-1.37687e-09
-7.62005e-09
1.74501e-09
2.59849e-09
-4.64728e-09
-2.2459e-09
7.79556e-09
4.90949e-09
-1.42132e-09
7.10586e-09
-2.41077e-09
-4.93008e-09
5.33906e-09
2.22957e-09
-4.56549e-09
-8.29116e-09
4.60249e-09
7.18902e-09
1.54878e-09
3.77955e-09
8.55113e-10
-8.41816e-10
4.39758e-09
1.61119e-09
-7.8063e-09
-1.04531e-08
5.5824e-09
4.28078e-09
2.48576e-09
1.09997e-09
2.49138e-09
2.16332e-09
3.89353e-09
-2.03168e-09
-6.62463e-09
-4.27758e-09
2.60196e-09
3.81256e-09
3.73936e-09
6.35181e-11
4.16801e-09
5.14051e-09
8.38582e-10
-5.28562e-09
-5.93312e-09
-2.37092e-09
1.50896e-09
5.24991e-09
6.01177e-09
-4.08827e-09
8.93128e-09
1.12442e-08
-5.759e-09
-1.13824e-08
-6.86986e-09
-3.28379e-11
8.9273e-10
5.48405e-09
5.54042e-09
-7.03035e-09
9.11104e-09
7.14236e-09
-9.49906e-09
-1.03369e-08
-2.08296e-09
7.34964e-09
1.21256e-09
7.79516e-09
3.60418e-09
-5.04058e-09
2.84498e-09
-7.77257e-09
-1.06887e-08
3.32559e-09
6.73974e-09
1.2714e-09
2.82529e-09
7.90083e-09
8.395e-09
9.04238e-10
-8.31571e-09
-1.23041e-08
-6.7822e-09
1.09627e-08
1.13444e-08
-1.79584e-09
-4.36884e-09
7.87454e-10
4.9065e-09
-4.07988e-10
-1.32737e-08
-3.39842e-09
1.17846e-08
-1.51825e-09
1.13054e-09
4.73292e-09
2.1204e-09
-3.86824e-09
-4.71013e-09
-6.14386e-09
-6.15602e-09
5.83354e-09
1.30154e-08
-8.30153e-09
-7.60968e-09
1.09997e-08
9.68992e-09
-7.02129e-09
2.68674e-09
-4.50387e-09
-2.81523e-09
1.01678e-08
6.31223e-09
-8.73768e-09
-8.52352e-09
1.13111e-08
2.43046e-10
-2.00359e-09
8.48868e-09
-1.14675e-09
-4.93883e-09
7.45222e-09
5.94327e-10
2.05872e-09
7.03204e-11
-8.41745e-09
-6.02295e-10
6.51031e-09
2.35975e-09
-2.8432e-10
2.60036e-10
6.49481e-10
-2.27573e-09
5.69755e-09
5.42124e-10
-1.15505e-08
3.48004e-10
3.48327e-09
-2.8073e-10
5.88385e-09
1.06459e-08
-7.95464e-09
-7.25996e-09
4.78765e-09
3.10964e-09
-5.52949e-09
-2.70554e-09
1.23631e-09
-7.20128e-09
4.66086e-09
1.10377e-08
-8.2727e-09
-8.16087e-09
9.70108e-09
2.81517e-09
-4.93136e-09
-7.09184e-11
-8.96829e-09
-5.54662e-09
6.73706e-09
-2.74101e-09
-5.92912e-10
8.47831e-09
1.53279e-09
-6.32176e-10
-2.25573e-10
-2.23744e-10
-8.3907e-09
9.29822e-10
5.30318e-09
-5.19763e-09
3.32736e-09
1.12775e-08
-3.8321e-09
1.23472e-11
2.95694e-09
-8.81165e-09
-7.95324e-09
2.11678e-09
-6.31848e-09
-8.28083e-10
8.66368e-09
2.85492e-09
-4.88752e-09
1.50051e-09
6.17018e-09
-7.44951e-09
-8.37924e-09
1.48505e-09
-3.72378e-09
-1.88964e-09
6.3857e-09
-5.61384e-09
-5.93293e-09
3.75058e-09
1.25842e-08
-2.27869e-09
2.447e-10
-4.61989e-09
6.9345e-10
1.29349e-09
-5.55958e-09
-4.22056e-09
-4.28041e-10
7.58145e-09
2.19937e-09
7.95232e-10
1.32471e-09
-1.49255e-09
8.2367e-10
1.58426e-09
-2.59554e-09
-3.07726e-10
2.79281e-09
1.28795e-10
-3.41422e-09
-2.35941e-09
1.68954e-09
4.45735e-09
-9.56208e-10
9.63252e-10
4.20287e-09
-3.59517e-09
-4.28516e-09
-1.53561e-09
-1.59602e-09
-2.24444e-09
7.16641e-09
-2.29554e-09
1.20284e-09
5.65362e-09
-1.39948e-09
-3.99701e-09
-1.29556e-09
-2.54731e-09
-5.80529e-09
1.51671e-09
2.6798e-09
-2.06263e-09
5.27728e-09
7.92411e-09
-5.34876e-10
-2.32134e-09
-1.52476e-09
-8.31791e-09
-4.68931e-09
4.63358e-09
8.13282e-10
2.02986e-09
2.45298e-09
-2.9647e-09
-1.80674e-09
1.77132e-09
3.60952e-10
-2.47498e-09
-1.15392e-09
1.80813e-09
2.6307e-09
1.93256e-09
-4.41405e-09
-6.53946e-09
-3.36668e-09
1.68588e-09
2.60986e-09
3.81109e-09
2.76644e-09
-4.43574e-10
-7.49468e-10
-5.40347e-10
-8.1271e-10
-6.59826e-10
-3.2301e-10
5.97378e-11
7.63243e-10
4.75527e-10
1.37202e-09
1.48852e-09
3.2915e-09
-1.18268e-09
-2.28263e-09
2.28037e-10
-7.10729e-10
-2.61236e-09
7.49368e-10
2.71367e-09
-1.89057e-09
9.15396e-10
3.39562e-09
-1.98228e-09
-2.47558e-09
-6.43696e-10
-1.84553e-09
-4.43557e-09
1.99519e-09
2.70535e-09
-1.45095e-09
4.20006e-09
-1.29617e-09
-2.52564e-09
4.01269e-10
-3.94124e-09
-1.64847e-09
-2.00148e-09
1.55603e-10
-5.79057e-10
1.58223e-09
9.65636e-09
-4.04892e-09
-8.09674e-10
5.28372e-09
-9.58969e-09
3.07948e-10
2.66224e-09
-2.3028e-09
-3.44476e-09
1.17008e-09
1.08804e-08
-7.51128e-09
-4.26061e-10
5.01914e-09
-7.58547e-09
2.60797e-09
3.99918e-09
-5.56388e-09
-2.5469e-09
2.5482e-09
1.05152e-08
-8.20287e-09
-4.67928e-09
3.87346e-09
-5.57606e-09
5.80486e-09
7.18193e-10
-9.12522e-09
1.88665e-09
8.68381e-09
7.39225e-09
-7.69435e-09
-8.95782e-09
4.54167e-09
-4.16311e-10
3.0441e-09
-3.45746e-10
-9.71749e-09
4.15752e-09
9.48609e-09
6.30703e-09
-6.77676e-09
-9.57479e-09
5.13392e-09
8.38586e-10
3.33347e-10
2.50407e-09
-4.50911e-09
1.18631e-09
6.20617e-09
5.33131e-09
-3.92391e-09
-4.22145e-09
7.57481e-10
-1.06763e-09
5.53673e-10
2.06647e-09
-2.0526e-09
2.14966e-09
4.7819e-09
1.64197e-09
3.13131e-10
-8.69939e-10
-2.97695e-09
-3.47258e-09
9.31722e-10
1.00473e-09
-1.48661e-09
4.83359e-09
3.04305e-09
3.42288e-10
1.57425e-09
-3.13371e-09
-1.89578e-09
-3.0486e-09
-1.79275e-09
4.40469e-09
3.88649e-09
1.26042e-09
-8.07306e-10
1.77095e-09
-4.30874e-09
-9.1808e-09
3.62636e-09
3.68031e-09
-6.67867e-09
7.29525e-09
1.05118e-08
-3.24988e-09
-3.65581e-09
3.27638e-09
-6.07784e-09
-1.22001e-08
8.38567e-09
3.49233e-09
-4.53859e-09
8.98425e-09
1.30315e-08
-3.03365e-09
-6.42908e-09
2.7297e-09
-1.8226e-09
-7.79438e-09
3.32174e-09
1.21256e-09
-1.9282e-09
1.03103e-08
1.39325e-08
-2.07478e-09
-1.12525e-08
2.00879e-09
5.56948e-10
-5.35687e-09
6.60074e-10
2.1966e-09
2.08993e-09
7.93449e-09
1.43371e-08
-2.86477e-09
-1.40344e-08
1.40496e-09
5.0009e-10
-3.76641e-09
-1.22834e-09
4.45004e-09
6.48093e-09
5.5685e-09
1.04896e-08
-1.93287e-09
-1.0479e-08
-2.26893e-09
8.31169e-10
-1.75581e-09
9.95681e-11
2.67657e-09
3.99673e-09
4.7361e-09
8.21999e-09
1.78482e-10
-8.2759e-09
-4.21163e-09
1.19432e-09
7.11182e-10
3.36331e-09
-3.00396e-09
-4.82792e-09
3.66464e-09
8.80353e-09
2.75582e-09
-5.96214e-09
-4.73739e-09
1.59047e-09
3.39039e-09
3.47128e-09
-5.67721e-09
-8.54929e-09
2.12434e-09
9.71279e-09
3.79042e-09
-4.76659e-09
-5.01862e-09
2.66586e-09
6.27667e-09
1.84067e-09
-4.86344e-09
-4.61513e-09
-9.29549e-10
4.30216e-09
1.89195e-09
-2.27438e-09
-4.49252e-09
4.58338e-09
1.08895e-08
-5.72187e-10
-4.54514e-09
-1.71267e-09
-6.1722e-09
-1.7335e-09
1.67326e-09
3.15921e-09
-3.039e-09
4.20591e-09
9.39169e-09
-1.31149e-09
6.59954e-10
2.47267e-09
-8.44898e-09
-7.36296e-09
8.49206e-10
5.78735e-09
-3.35847e-09
-3.30499e-09
5.7981e-09
1.52623e-09
8.86829e-09
1.00885e-08
-1.27198e-08
-1.1882e-08
1.75026e-09
8.33377e-09
-5.26308e-09
-1.07323e-08
1.53094e-09
3.2513e-09
9.85981e-09
8.17835e-09
-5.40672e-09
-1.4158e-08
4.71628e-09
1.55449e-08
-9.28291e-09
-7.63582e-09
-3.73323e-10
1.99288e-09
5.33582e-09
3.30441e-09
7.9036e-09
-4.76701e-09
-8.00024e-09
8.7552e-09
-3.69023e-09
1.86698e-09
-4.09103e-10
-2.5413e-09
-2.00906e-10
-1.99662e-09
1.1316e-08
-6.08089e-11
-1.27335e-08
6.16445e-09
4.19629e-09
6.96761e-09
-5.06366e-09
1.73497e-09
-1.9699e-09
-6.92537e-09
5.33012e-09
1.94112e-09
-4.40979e-09
1.36251e-09
8.34111e-09
1.40082e-09
-7.53767e-09
6.11634e-09
8.47246e-10
-7.42294e-09
2.26414e-09
8.97399e-10
-2.45148e-09
2.83847e-09
1.14799e-08
-2.16586e-09
-6.71195e-09
2.00914e-09
7.64656e-09
3.83875e-09
-6.48771e-09
-2.05774e-10
1.09264e-10
3.78485e-09
8.28533e-09
2.06751e-09
-6.73407e-10
-3.07951e-09
5.73153e-09
-1.44045e-09
-1.34414e-08
7.68613e-09
9.87251e-09
-3.82457e-09
2.66593e-09
1.5578e-09
4.4132e-10
-4.0294e-09
-2.5024e-09
-2.8185e-09
-1.0863e-08
7.35156e-09
1.41073e-08
2.73022e-09
-1.52411e-09
4.14903e-10
-7.93084e-10
-6.32837e-09
-8.83303e-09
2.96477e-10
4.92849e-09
-2.11945e-09
8.79566e-09
9.12136e-09
1.50764e-09
9.30936e-09
4.94958e-09
-1.14982e-08
-8.15159e-09
5.34707e-09
5.30025e-09
-7.20112e-09
-3.76107e-09
6.32761e-09
8.01736e-09
8.69867e-09
7.90164e-09
-9.43059e-09
-5.22971e-09
1.04461e-08
1.69731e-09
-1.23103e-08
-7.60259e-09
4.67021e-09
4.54507e-09
2.96451e-09
-1.29582e-09
-5.04571e-09
8.4808e-10
7.75915e-09
4.58019e-09
-4.71213e-09
-5.71616e-09
1.93969e-09
6.18945e-10
2.05299e-09
-4.46082e-09
-1.15124e-09
8.39264e-09
-3.01662e-09
4.6672e-09
3.62491e-09
-2.93009e-09
-2.34018e-09
-5.42885e-09
-1.03638e-09
3.39218e-10
2.93441e-09
9.15383e-10
-5.92311e-09
3.89102e-09
9.22307e-09
1.37529e-09
-3.52402e-09
-4.77706e-09
-7.95311e-09
-2.34761e-09
8.2328e-09
-2.47751e-09
-6.15696e-09
3.93169e-09
9.00494e-09
1.11289e-09
-1.83862e-09
5.38502e-10
-6.55981e-09
-5.24362e-09
1.25715e-08
-3.28601e-09
-5.47745e-09
6.75567e-09
2.9399e-09
-3.61017e-10
-3.22867e-09
1.68381e-09
1.61937e-09
-6.9716e-10
-5.23108e-09
3.59891e-09
9.14015e-09
-1.09832e-10
2.30625e-09
1.8577e-09
-8.7747e-09
-4.49955e-09
-2.31599e-09
-2.58611e-09
-1.09754e-08
3.89678e-09
1.10975e-08
-2.07957e-09
2.13035e-09
5.46046e-09
-2.21925e-10
-1.00775e-08
-4.38662e-09
4.48392e-09
7.13324e-10
-6.22905e-09
3.33087e-10
-6.70196e-09
-4.47869e-09
8.71296e-09
7.56934e-09
-4.61985e-09
-2.54266e-09
7.65358e-09
1.06339e-09
-4.16168e-09
-2.1974e-09
-7.7903e-09
-6.59714e-09
6.95549e-09
5.83906e-09
-1.68755e-09
6.67493e-09
-3.81338e-09
3.14268e-11
7.24147e-09
-4.89788e-09
-1.04769e-09
3.93746e-09
-9.38479e-10
-6.98939e-09
-1.20562e-09
6.80338e-09
-1.19007e-09
-1.28876e-09
5.63502e-09
-1.85694e-09
-6.29327e-10
3.51849e-09
-4.5033e-09
-6.53224e-09
-1.35565e-10
1.23557e-09
2.12318e-09
2.68488e-09
-1.98932e-09
-1.93854e-09
-7.33097e-10
-2.09673e-10
-4.05253e-09
-1.88531e-09
4.39889e-09
-3.79794e-09
7.99019e-10
7.16009e-09
5.2355e-10
-6.79687e-10
2.72561e-09
-5.78963e-09
-5.54003e-09
7.30137e-10
4.35712e-09
-2.71105e-10
-7.10073e-11
9.89199e-10
-3.00632e-09
-8.57332e-10
4.44891e-09
-4.26604e-09
-3.43313e-09
5.34619e-09
2.0918e-09
2.45053e-09
-3.3232e-10
-6.04955e-09
-3.56956e-09
-1.1801e-09
-1.86768e-09
5.00885e-09
4.22215e-09
2.2017e-10
1.10825e-09
-7.14061e-10
-7.87773e-10
-6.21263e-10
4.5665e-10
-2.432e-10
-6.20372e-10
2.94893e-09
1.35421e-09
-1.07275e-09
-1.26038e-10
-9.21438e-11
-3.39375e-09
-2.82651e-10
1.15398e-10
-1.79237e-09
-1.06254e-10
3.14625e-09
-8.60027e-10
-3.1435e-10
2.52153e-09
3.06008e-10
-5.16706e-09
-1.38522e-09
9.57843e-10
-2.81617e-09
-3.27769e-10
5.44726e-09
-4.0938e-10
-8.21229e-10
6.57296e-09
-3.89096e-10
-3.94491e-09
-4.32068e-09
3.24579e-09
1.06219e-09
-2.95715e-09
1.86371e-09
8.94634e-11
3.84933e-09
4.81119e-09
-2.71492e-09
-4.46639e-09
-1.70445e-09
5.54349e-09
-1.59412e-10
-3.86884e-09
1.58869e-09
1.3651e-10
4.42481e-09
4.73444e-09
-6.95183e-09
-1.92905e-09
6.55347e-09
2.22213e-09
-2.76563e-09
-2.09934e-09
3.10488e-09
-2.37308e-09
2.16557e-09
5.34552e-09
-9.25436e-09
3.80324e-10
1.0272e-08
-2.2119e-09
-2.57382e-09
2.74319e-09
1.42699e-09
-2.79115e-09
1.45395e-09
2.81847e-09
-1.0434e-08
3.354e-09
8.96556e-09
-5.59619e-09
-1.13973e-09
7.82064e-09
-2.08976e-09
-1.14667e-09
6.15978e-09
-3.17534e-09
-1.12952e-08
6.05194e-09
7.26428e-09
-5.31426e-09
-3.07551e-09
8.48687e-09
-3.92448e-09
9.55024e-10
1.22608e-08
-9.0136e-09
-1.00625e-08
1.07217e-08
3.1027e-09
-3.10491e-09
-6.91025e-10
4.88837e-09
-6.71173e-09
7.10543e-10
1.15243e-08
-7.64775e-09
-4.97459e-09
7.8397e-09
-1.92661e-09
-1.24237e-09
2.8635e-09
1.58186e-10
-7.50502e-09
-2.16426e-09
9.85601e-09
-3.69737e-09
-2.13027e-09
5.5828e-09
-6.32471e-09
-3.14818e-09
5.95829e-09
-1.08731e-09
-4.70311e-09
1.0464e-10
4.68994e-09
-1.18713e-09
-3.84363e-09
3.27034e-09
-9.09312e-09
-9.08438e-09
1.08155e-08
3.03642e-09
-7.39324e-09
1.35511e-09
4.39532e-09
2.21079e-09
-8.27892e-09
2.30911e-09
-8.77578e-09
-1.04902e-08
1.25472e-08
7.45669e-09
-5.19903e-09
-2.94379e-09
7.64562e-09
7.7994e-10
-1.14874e-08
4.48533e-09
-7.13144e-09
-9.96043e-09
1.11828e-08
1.2242e-08
4.93706e-10
-6.3552e-09
5.10187e-09
-3.00005e-09
-7.5245e-09
1.55409e-10
-5.44781e-09
-5.74006e-09
7.34875e-09
1.35161e-08
8.09559e-10
-6.79461e-09
3.42699e-09
-2.36411e-09
-5.10891e-09
-2.21322e-09
-4.6704e-09
-4.5736e-09
4.61197e-09
1.07623e-08
5.5731e-09
-1.72498e-09
1.88328e-10
-3.08806e-09
-2.5196e-09
-2.80876e-09
-4.07929e-09
-4.1437e-09
1.37775e-09
8.74001e-09
8.3375e-09
2.38394e-09
-2.39529e-09
-4.15232e-09
-8.23937e-10
-1.9332e-09
-2.90285e-09
-3.48322e-09
4.03659e-10
4.49881e-09
8.70287e-09
6.4594e-09
-5.39007e-09
-5.84189e-09
1.4775e-09
-9.74839e-10
-2.24016e-09
-3.83193e-09
-6.90022e-10
1.26195e-09
1.07556e-08
1.19448e-08
-1.0122e-08
-7.80605e-09
5.42149e-09
-6.9469e-10
-2.38242e-09
-3.15409e-09
-7.55766e-11
-1.11609e-09
5.4755e-09
8.68845e-09
-6.103e-09
-3.57249e-09
1.01859e-08
-1.37133e-09
-2.7033e-09
-1.2348e-09
2.4055e-09
-6.54761e-09
-6.13098e-09
5.00903e-09
3.90209e-10
5.33154e-09
1.70973e-08
-4.20378e-09
-4.98459e-09
1.25074e-09
1.91313e-09
-9.49586e-09
-1.21188e-08
7.45247e-09
1.36481e-09
9.72915e-09
1.22267e-08
-5.84596e-09
-1.31048e-09
5.92077e-09
-2.38352e-09
-7.86957e-09
-6.30182e-09
3.83557e-09
4.52145e-10
7.45227e-09
1.71242e-09
-5.3688e-09
7.46798e-09
1.22425e-08
-9.50391e-09
-6.46263e-09
-3.9011e-10
1.62224e-09
-1.02267e-09
2.16597e-09
4.76402e-09
-2.84167e-09
4.08518e-09
1.28145e-08
-9.40098e-09
-4.66471e-09
9.93809e-09
5.00452e-10
-7.90444e-09
-7.67721e-09
8.83878e-09
2.7674e-09
-2.33753e-09
1.30992e-08
-6.38942e-09
-5.9884e-09
1.20497e-08
2.45053e-10
-8.47032e-09
-1.12224e-08
-3.18599e-09
3.70563e-09
9.06687e-09
7.42065e-10
-7.00504e-09
-6.03256e-10
1.85547e-09
-5.25578e-10
6.11054e-10
-2.27397e-09
-1.64977e-08
4.4181e-11
1.48116e-08
-3.56208e-09
-5.15573e-09
8.32021e-09
-1.17497e-09
-7.23955e-09
6.24328e-09
7.86595e-09
-9.76555e-09
1.7225e-09
1.15516e-08
-4.3431e-09
-3.08479e-09
1.08506e-08
-5.22326e-09
-1.11429e-08
9.20322e-09
2.99365e-09
-1.20211e-09
1.34273e-08
2.11248e-09
-3.2662e-09
1.69201e-09
8.22045e-10
-7.89022e-09
-9.32188e-09
6.45459e-09
-8.9895e-10
3.76505e-09
4.94514e-09
-2.95264e-09
5.29372e-10
8.76812e-09
-1.04038e-08
-1.59832e-09
7.22988e-09
-2.96887e-09
-2.15851e-09
3.91974e-09
2.76917e-09
-9.9267e-09
-4.87479e-09
8.73214e-09
-6.80261e-09
-3.35935e-09
1.00216e-08
4.56858e-09
3.19305e-09
5.61739e-09
-2.12638e-09
-1.13918e-08
-1.016e-08
1.20642e-08
-3.78264e-09
-1.15109e-08
7.02379e-09
1.06726e-08
1.13639e-08
4.77652e-09
-8.68833e-09
-1.39476e-10
5.00469e-09
5.77252e-09
-3.47914e-09
-6.34801e-09
-1.37519e-09
1.14608e-09
1.13822e-08
-6.07005e-09
-9.94685e-09
5.13083e-09
8.95346e-09
4.95855e-10
-3.782e-10
3.65431e-09
2.93459e-09
-1.43651e-09
-7.75126e-10
-5.6865e-09
2.88837e-09
1.57099e-09
5.21725e-10
-6.46879e-09
2.68316e-09
7.73585e-09
3.87721e-09
1.42901e-09
-8.50045e-09
-3.4856e-09
6.28124e-09
1.14983e-09
-1.63775e-09
-6.77268e-09
4.34075e-09
1.19515e-08
-2.67376e-09
-3.22988e-09
-5.55007e-09
-2.56458e-09
-6.81545e-10
-1.54353e-09
-5.33285e-09
8.45933e-11
9.68229e-09
1.11036e-08
-5.16636e-09
-4.79879e-09
2.54451e-10
-2.11136e-10
-4.53082e-09
3.81226e-09
-1.94267e-09
-2.13696e-09
1.16897e-08
-6.23283e-10
-7.77085e-09
-1.40666e-09
4.18692e-09
6.5144e-10
-4.84992e-09
2.58714e-09
5.67083e-09
4.83058e-09
-8.39345e-11
6.58368e-10
-1.67077e-09
-8.57896e-09
6.30504e-10
5.40268e-09
3.24088e-09
-6.8543e-09
3.86842e-09
4.89778e-09
-7.10221e-09
3.68019e-09
7.3758e-09
-5.88186e-09
-7.93731e-09
1.50548e-09
8.03069e-10
-2.41515e-09
-3.55183e-10
-4.13579e-09
-7.72758e-09
-8.73332e-10
1.02291e-08
5.1874e-09
-4.07779e-09
-1.60743e-09
-3.22993e-10
-1.50933e-09
5.5956e-10
-2.41557e-09
-4.85596e-09
-1.48321e-09
3.20481e-09
4.73911e-09
2.71528e-10
3.47709e-09
4.40538e-10
-3.24598e-09
3.28685e-09
4.59631e-09
5.11149e-09
-5.34658e-10
-5.97818e-09
-4.91501e-09
-3.34355e-09
7.50005e-10
1.79605e-09
6.72305e-10
-4.55008e-09
3.23585e-09
7.67754e-09
-7.92301e-11
-8.87777e-09
-3.21613e-09
4.16695e-09
-2.54831e-09
9.50386e-10
3.44905e-09
-3.2481e-09
-3.18799e-09
1.12546e-09
8.93485e-10
-7.76013e-10
-1.3666e-10
2.65937e-09
-2.1242e-09
2.03906e-09
5.19285e-09
1.34847e-09
-2.57141e-09
-3.02295e-09
-4.7791e-09
1.04607e-09
3.6346e-09
-1.48228e-09
-1.00574e-09
3.75254e-09
-2.249e-09
-1.25232e-09
1.41209e-09
-1.94893e-09
-4.30035e-09
-1.50422e-09
6.01954e-09
9.32222e-10
1.29218e-09
-4.75528e-10
-4.58279e-09
-3.7607e-09
-2.75267e-10
1.37682e-09
5.465e-09
3.0769e-09
-2.57648e-09
8.7684e-11
-1.34636e-11
-5.63612e-10
-5.10545e-10
-1.09115e-10
-9.36403e-10
5.73687e-10
3.45134e-09
9.51034e-10
-1.62321e-09
-8.00772e-10
6.54653e-11
-1.05479e-09
-1.34882e-09
7.8125e-10
1.6124e-09
-9.96249e-10
-1.54406e-09
1.25555e-09
1.51334e-09
8.03147e-12
1.09433e-09
-3.01121e-09
-4.90492e-09
3.55125e-09
5.40543e-09
-4.64575e-09
-5.34356e-09
4.16287e-09
5.46576e-09
-1.07695e-09
-1.74462e-09
-4.9053e-09
-6.50015e-09
5.70902e-09
4.45062e-09
-4.82454e-09
-4.95326e-09
4.58902e-09
7.41932e-09
1.99343e-09
-5.88009e-09
-3.88342e-09
-2.44634e-09
2.85554e-09
1.01944e-09
-2.52729e-09
7.82936e-10
-1.81725e-09
6.85105e-09
5.77e-09
-6.83791e-09
-1.10579e-09
1.71932e-09
-1.98329e-09
-6.90645e-10
-1.15015e-09
9.67705e-10
-3.97377e-09
5.63202e-09
5.61309e-09
-7.67303e-09
2.90687e-09
1.69114e-09
-7.92783e-09
1.27811e-09
4.10148e-09
-5.01721e-09
-2.1941e-09
8.0616e-09
1.26516e-09
-8.78191e-09
3.30297e-09
2.04528e-09
-7.50508e-09
2.75447e-10
5.88753e-09
-4.37589e-09
-3.37672e-09
9.70497e-09
-1.93438e-09
-1.10734e-08
9.91744e-10
5.55342e-09
-1.31785e-09
-4.4432e-09
5.19557e-09
-3.90115e-10
-4.11272e-09
8.67078e-09
-4.89757e-09
-1.06503e-08
-4.24422e-10
5.71941e-09
9.19103e-10
-3.97585e-09
-8.79595e-10
1.90769e-09
4.49258e-10
5.21879e-09
-4.91155e-09
-4.95495e-09
-3.22199e-09
-7.23767e-10
3.59418e-09
1.92553e-09
-9.0781e-09
2.1953e-09
6.29838e-09
-9.12679e-11
-2.10676e-09
1.5981e-09
-7.62707e-09
-4.95519e-09
2.83872e-09
5.12606e-09
-8.67647e-09
6.23124e-10
6.83746e-09
-4.71499e-09
2.68985e-09
6.4133e-09
-4.56002e-09
-9.61085e-09
-2.69078e-09
1.11305e-08
1.21914e-10
-3.8118e-09
1.19311e-09
-8.13274e-09
5.48675e-09
8.28133e-09
-4.37598e-09
-1.02996e-08
-6.4253e-09
1.29463e-08
6.71925e-10
-5.30623e-09
1.24912e-09
-5.58394e-09
5.30744e-09
2.26707e-09
-5.79176e-09
-6.26551e-09
-4.14263e-11
8.46457e-09
-1.77887e-09
-8.16807e-09
5.4953e-09
7.99477e-10
1.74798e-09
2.65257e-10
-9.82448e-09
-2.07114e-09
7.62856e-09
6.16686e-09
-3.11767e-10
-4.70741e-09
2.30723e-09
7.77541e-10
-3.24466e-10
9.06935e-10
-1.12059e-08
-5.0827e-09
1.15694e-08
5.47534e-09
1.64041e-09
-3.93664e-10
1.55467e-09
-9.88174e-10
-3.3898e-09
2.45307e-09
-6.10265e-09
-7.95877e-09
9.41291e-09
4.7118e-09
5.1402e-09
4.30475e-09
1.09551e-09
-3.04238e-09
-7.38596e-09
9.43714e-11
-2.10539e-09
-4.12047e-09
6.30872e-09
3.08667e-09
8.40323e-09
9.40634e-09
9.15772e-10
-6.44245e-09
-1.20174e-08
8.87043e-10
1.31375e-09
-1.39183e-09
3.76168e-09
1.96111e-10
1.20817e-08
1.64109e-08
1.23461e-09
-1.44602e-08
-1.53604e-08
4.21545e-09
4.79377e-09
3.34918e-10
-9.6323e-11
-1.22889e-09
1.14786e-08
1.47442e-08
1.98362e-09
-1.44528e-08
-1.74102e-08
1.79417e-09
3.3667e-09
1.85462e-09
-2.26265e-09
-1.77267e-09
7.74063e-09
7.74919e-09
9.34183e-10
-7.74379e-09
-9.21797e-09
1.56508e-09
3.89289e-09
3.6025e-09
-4.29004e-09
-3.71746e-09
4.52506e-09
4.35561e-09
-8.72218e-10
-3.03894e-09
-1.72571e-09
3.98144e-10
3.61894e-09
6.23602e-09
-4.73655e-09
-8.56003e-09
-2.03441e-09
3.79824e-09
3.89588e-10
1.51967e-09
5.20513e-09
-3.63113e-09
2.98257e-09
1.21123e-08
-1.06523e-08
-1.10967e-08
-3.92433e-10
3.0736e-09
-4.32192e-09
3.72933e-09
1.23095e-08
-4.64614e-10
2.41853e-09
7.47075e-09
-5.0766e-09
-7.33311e-09
4.44555e-09
1.99408e-09
-8.30859e-09
-2.16994e-09
9.48659e-09
1.1958e-09
-1.31955e-09
-1.73432e-09
7.30057e-09
5.93839e-09
-2.66209e-09
-1.92876e-10
-3.97042e-09
-5.71654e-09
2.43741e-09
-2.75596e-09
-1.78945e-09
-2.30559e-09
9.82617e-09
7.99672e-09
-2.4413e-09
-6.28369e-09
4.72673e-09
3.17738e-09
-8.98162e-09
-9.33131e-09
3.43388e-09
1.1053e-08
1.77625e-09
-8.97799e-10
-3.3636e-09
-6.0623e-09
8.25179e-09
6.72451e-09
-4.9345e-09
-7.16989e-09
9.81865e-09
7.43242e-09
-4.21968e-09
4.38369e-10
-2.08556e-10
-1.00285e-08
-5.95736e-09
1.2552e-08
2.25542e-09
3.50792e-09
1.21606e-08
2.19858e-09
2.34704e-09
2.62444e-09
-6.79573e-09
-1.00616e-08
-4.02077e-09
3.05623e-09
-8.70761e-10
1.04763e-08
1.2822e-09
2.52218e-09
6.14502e-09
-2.23947e-09
-1.35759e-08
-2.7576e-09
9.4715e-09
-4.78851e-09
-1.69146e-09
2.90583e-09
1.88197e-09
-3.86011e-11
-2.01319e-09
-5.09066e-09
-1.12984e-08
-2.05888e-10
7.56913e-09
2.92898e-09
5.26277e-09
-3.94135e-09
1.31661e-09
-1.85086e-09
-2.34082e-09
-1.2106e-09
-6.93642e-09
-4.51817e-09
1.11801e-09
1.01274e-08
9.59884e-09
9.70245e-10
1.98025e-09
-3.09536e-09
1.35991e-11
4.67865e-09
-2.74007e-09
-4.06286e-09
-2.83818e-09
3.30458e-09
5.13713e-09
4.53165e-09
-1.89108e-09
-4.06479e-09
-1.70046e-09
-3.74628e-09
4.97786e-09
1.03686e-08
2.06007e-09
-3.66924e-09
-3.30181e-09
1.80434e-09
-2.55315e-09