/*--------------------------------*- C++ -*----------------------------------*\
| =========                 |                                                 |
| \\      /  F ield         | foam-extend: Open Source CFD                    |
|  \\    /   O peration     | Version:     3.2                                |
|   \\  /    A nd           | Web:         http://www.foam-extend.org         |
|    \\/     M anipulation  | For copyright notice see file Copyright         |
\*---------------------------------------------------------------------------*/
FoamFile
{
    version     2.0;
    format      ascii;
    class       volScalarField;
    location    "2000000";
    object      p;
}
// * * * * * * * * * * * * * * * * * * * * * * * * * * * * * * * * * * * * * //

dimensions      [0 2 -2 0 0 0 0];

internalField   nonuniform List<scalar> 
5000
(
3.40186e-12
-0.000158859
-0.000332672
-0.0004862
-0.000638603
-0.000796862
-0.000949691
-0.00110071
-0.00124574
-0.00140866
-1.11727e-06
-0.00015982
-0.000333865
-0.000487414
-0.000639883
-0.000798128
-0.000950979
-0.00110202
-0.00124698
-0.00141192
-1.63229e-06
-0.000160049
-0.00033459
-0.000488425
-0.000641112
-0.000799565
-0.000952502
-0.00110406
-0.00124917
-0.00141808
-2.2501e-06
-0.000159846
-0.000334876
-0.000489166
-0.000642167
-0.000800939
-0.000954134
-0.00110658
-0.00125213
-0.00142653
-2.59249e-06
-0.000159002
-0.000334598
-0.00048957
-0.000642999
-0.000802249
-0.000955884
-0.00110961
-0.00125612
-0.00143669
-2.71861e-06
-0.000157568
-0.00033373
-0.000489583
-0.000643546
-0.000803422
-0.000957746
-0.00111307
-0.0012613
-0.00144812
-2.50503e-06
-0.000155468
-0.000332161
-0.000489116
-0.000643715
-0.000804391
-0.000959697
-0.00111689
-0.00126759
-0.00146064
-1.90348e-06
-0.000152672
-0.000329835
-0.000488089
-0.000643409
-0.000805091
-0.000961703
-0.00112101
-0.00127482
-0.00147413
-8.36908e-07
-0.000149129
-0.000326725
-0.000486407
-0.000642533
-0.000805424
-0.00096372
-0.00112534
-0.00128283
-0.00148845
7.57901e-07
-0.000144805
-0.00032278
-0.000483985
-0.000641031
-0.000805302
-0.000965559
-0.00112982
-0.00129147
-0.00150347
2.94676e-06
-0.000139666
-0.000317939
-0.000480735
-0.000638822
-0.00080466
-0.00096708
-0.00113435
-0.00130058
-0.00151905
5.78787e-06
-0.000133681
-0.000312135
-0.000476568
-0.000635838
-0.000803426
-0.000968195
-0.00113881
-0.00130995
-0.00153501
9.33257e-06
-0.000126819
-0.000305303
-0.000471412
-0.000632021
-0.000801531
-0.000968802
-0.00114305
-0.00131937
-0.00155115
1.36206e-05
-0.00011904
-0.000297388
-0.000465218
-0.000627332
-0.000798911
-0.000968792
-0.00114689
-0.00132862
-0.00156723
1.86794e-05
-0.000110291
-0.000288357
-0.000457968
-0.000621754
-0.000795512
-0.000968067
-0.00115018
-0.00133749
-0.001583
2.45161e-05
-0.000100519
-0.000278213
-0.000449682
-0.000615294
-0.000791293
-0.000966543
-0.00115277
-0.00134574
-0.00159816
3.11154e-05
-8.97002e-05
-0.000266986
-0.000440404
-0.00060797
-0.000786227
-0.000964161
-0.00115453
-0.00135315
-0.00161243
3.84188e-05
-7.78722e-05
-0.000254743
-0.000430205
-0.000599818
-0.00078031
-0.000960893
-0.00115534
-0.0013595
-0.00162552
4.63359e-05
-6.51304e-05
-0.000241583
-0.000419172
-0.000590892
-0.000773559
-0.000956732
-0.00115511
-0.00136462
-0.00163716
5.47135e-05
-5.16415e-05
-0.000227643
-0.000407425
-0.000581284
-0.000766038
-0.000951703
-0.00115378
-0.00136835
-0.00164712
6.33812e-05
-3.76022e-05
-0.000213082
-0.00039509
-0.0005711
-0.00075783
-0.000945849
-0.00115132
-0.00137059
-0.00165521
7.20887e-05
-2.32729e-05
-0.000198109
-0.000382333
-0.000560494
-0.000749075
-0.000939255
-0.00114774
-0.00137129
-0.00166129
8.06064e-05
-8.89606e-06
-0.000182911
-0.000369303
-0.000549613
-0.000739934
-0.000932033
-0.00114313
-0.00137047
-0.0016653
8.8617e-05
5.24382e-06
-0.000167717
-0.000356138
-0.000538617
-0.000730553
-0.000924297
-0.00113759
-0.00136816
-0.00166725
9.58721e-05
1.88722e-05
-0.000152768
-0.000343074
-0.000527848
-0.000721174
-0.000916354
-0.00113138
-0.0013646
-0.00166722
0.000102066
3.16896e-05
-0.000138317
-0.000330258
-0.000517445
-0.000711816
-0.000908364
-0.00112463
-0.00135997
-0.00166532
0.000107011
4.35177e-05
-0.000124382
-0.000317789
-0.000507372
-0.000702835
-0.000900724
-0.00111784
-0.0013546
-0.00166189
0.000110693
5.44777e-05
-0.000110763
-0.000305436
-0.000497528
-0.000694207
-0.000893418
-0.00111103
-0.00134853
-0.00165703
0.000113224
6.49924e-05
-9.70537e-05
-0.000292915
-0.000487858
-0.000686052
-0.000886784
-0.00110474
-0.00134226
-0.00165138
0.000115112
7.61043e-05
-8.22381e-05
-0.000279417
-0.000477667
-0.000677889
-0.000880638
-0.0010989
-0.00133555
-0.00164493
0.00011762
8.88346e-05
-6.55418e-05
-0.000264635
-0.000466958
-0.00067013
-0.000875303
-0.00109376
-0.00132793
-0.00163485
0.000120263
0.000102924
-4.65211e-05
-0.00024798
-0.00045479
-0.000662282
-0.000870484
-0.00108919
-0.00131914
-0.0016201
0.000123758
0.000117686
-2.65922e-05
-0.000229314
-0.000439939
-0.000651104
-0.000865427
-0.00108575
-0.00131199
-0.00160546
0.000124242
0.00012754
-1.32098e-05
-0.000218883
-0.00043408
-0.000644777
-0.000857825
-0.00107942
-0.00130031
-0.00158733
0.000119097
0.00012787
-1.20313e-05
-0.000220472
-0.000441117
-0.000654412
-0.000862507
-0.0010749
-0.00129317
-0.00158226
0.000111724
0.000119325
-1.80535e-05
-0.000228194
-0.000450644
-0.000668897
-0.000878835
-0.00108261
-0.00129285
-0.00158299
0.000107162
0.000108713
-3.30382e-05
-0.000242361
-0.000458669
-0.000669232
-0.000874315
-0.00107782
-0.00128742
-0.0015768
0.000107387
9.7371e-05
-4.98385e-05
-0.000253111
-0.000463331
-0.000671521
-0.00087535
-0.00108066
-0.00128923
-0.00157415
0.000105892
7.869e-05
-7.27194e-05
-0.000268548
-0.000468846
-0.000666794
-0.000864092
-0.00106546
-0.00127719
-0.00155978
0.000104915
6.06025e-05
-9.46681e-05
-0.000284942
-0.000476622
-0.000668346
-0.000861424
-0.00106312
-0.0012771
-0.00155496
0.000103178
4.44732e-05
-0.000114221
-0.000300656
-0.000485888
-0.000674108
-0.000864018
-0.00106513
-0.00127991
-0.00155233
0.000101635
3.14946e-05
-0.000130292
-0.000314048
-0.000495044
-0.000681311
-0.000869199
-0.00106968
-0.00128526
-0.00155351
9.96362e-05
2.2034e-05
-0.000142681
-0.000324948
-0.000503616
-0.000688955
-0.000876087
-0.00107556
-0.00129278
-0.00156155
9.79905e-05
1.71036e-05
-0.000150016
-0.000332108
-0.000510101
-0.000694456
-0.000880804
-0.00108017
-0.00129942
-0.0015704
9.62886e-05
1.57202e-05
-0.000153024
-0.000336426
-0.000515256
-0.000698979
-0.000884634
-0.00108418
-0.00130518
-0.00158005
9.50225e-05
1.71224e-05
-0.000152728
-0.000338463
-0.000518862
-0.00070236
-0.000887399
-0.00108757
-0.00130919
-0.00158695
9.39163e-05
1.87567e-05
-0.000151882
-0.000339179
-0.000521397
-0.000704991
-0.000890385
-0.00109056
-0.00131304
-0.00159363
9.29318e-05
1.88969e-05
-0.00015154
-0.000339985
-0.000523133
-0.000707245
-0.000892876
-0.0010936
-0.00131501
-0.00159332
9.22999e-05
1.866e-05
-0.000152257
-0.000340582
-0.000524307
-0.000708381
-0.000894459
-0.00109495
-0.00131693
-0.0015966
9.20208e-05
1.83033e-05
-0.000152564
-0.000340967
-0.00052459
-0.000708931
-0.000894961
-0.00109573
-0.00131813
-0.00159936
2.43105e-05
-0.000137438
-0.000313694
-0.000467686
-0.000620367
-0.000780238
-0.000933931
-0.00108729
-0.0012335
-0.0013986
2.33247e-05
-0.000138339
-0.000314712
-0.000468702
-0.000621445
-0.000781285
-0.000935031
-0.00108843
-0.00123451
-0.00140169
2.30983e-05
-0.000138354
-0.000315079
-0.000469299
-0.000622245
-0.000782252
-0.000936125
-0.00109005
-0.00123619
-0.00140738
2.29051e-05
-0.000137862
-0.000314904
-0.00046949
-0.000622708
-0.000783016
-0.000937157
-0.00109196
-0.00123845
-0.0014151
2.3048e-05
-0.000136684
-0.000314118
-0.000469266
-0.000622861
-0.000783613
-0.000938202
-0.00109428
-0.00124165
-0.00142439
2.34541e-05
-0.0001349
-0.000312738
-0.000468622
-0.000622685
-0.000784019
-0.000939293
-0.00109696
-0.00124598
-0.00143494
2.42132e-05
-0.000132455
-0.000310686
-0.000467511
-0.000622138
-0.00078421
-0.00094045
-0.00110001
-0.00125137
-0.0014466
2.53598e-05
-0.000129341
-0.000307926
-0.000465892
-0.000621169
-0.000784161
-0.000941674
-0.00110338
-0.00125773
-0.00145928
2.69539e-05
-0.000125519
-0.000304451
-0.000463704
-0.000619731
-0.000783821
-0.000942944
-0.00110701
-0.00126494
-0.00147284
2.90424e-05
-0.000120969
-0.000300238
-0.000460897
-0.000617791
-0.000783141
-0.000944132
-0.00111085
-0.0012729
-0.00148721
3.16691e-05
-0.000115673
-0.000295253
-0.000457415
-0.000615299
-0.000782065
-0.000945166
-0.00111485
-0.00128146
-0.00150225
3.48646e-05
-0.000109627
-0.000289462
-0.000453202
-0.000612209
-0.000780558
-0.000945972
-0.00111892
-0.00129045
-0.00151783
3.86457e-05
-0.000102835
-0.000282827
-0.000448207
-0.000608485
-0.000778587
-0.000946484
-0.00112295
-0.00129969
-0.00153377
4.30114e-05
-9.53028e-05
-0.000275317
-0.000442394
-0.000604101
-0.000776122
-0.00094663
-0.00112681
-0.00130898
-0.00154988
4.7944e-05
-8.70215e-05
-0.000266916
-0.000435749
-0.000599048
-0.000773139
-0.000946341
-0.00113038
-0.00131813
-0.00156593
5.34044e-05
-7.79697e-05
-0.00025763
-0.000428289
-0.000593342
-0.000769619
-0.000945552
-0.00113353
-0.00132694
-0.00158165
5.93336e-05
-6.81298e-05
-0.000247493
-0.000420063
-0.000587018
-0.000765553
-0.000944214
-0.00113615
-0.00133521
-0.00159678
6.56397e-05
-5.75274e-05
-0.000236569
-0.000411156
-0.000580132
-0.000760943
-0.000942295
-0.00113813
-0.00134275
-0.00161102
7.2209e-05
-4.62413e-05
-0.000224946
-0.000401664
-0.000572753
-0.000755804
-0.000939774
-0.00113938
-0.00134937
-0.00162409
7.88797e-05
-3.44226e-05
-0.000212747
-0.000391707
-0.00056497
-0.000750178
-0.000936658
-0.00113983
-0.0013549
-0.00163572
8.5492e-05
-2.22479e-05
-0.000200102
-0.000381392
-0.000556872
-0.000744114
-0.000932954
-0.00113939
-0.00135919
-0.00164567
9.18256e-05
-9.95265e-06
-0.000187184
-0.000370851
-0.000548578
-0.000737704
-0.000928708
-0.00113806
-0.00136212
-0.00165374
9.7721e-05
2.26802e-06
-0.000174121
-0.000360167
-0.000540165
-0.000731019
-0.000923952
-0.0011358
-0.00136362
-0.00165977
0.00010295
1.41704e-05
-0.000161083
-0.000349433
-0.000531734
-0.000724154
-0.000918726
-0.00113262
-0.00136362
-0.00166362
0.000107439
2.56863e-05
-0.000148141
-0.000338648
-0.00052338
-0.000717254
-0.000913189
-0.00112867
-0.00136222
-0.00166527
0.000111055
3.66893e-05
-0.000135454
-0.000327863
-0.000515154
-0.000710185
-0.000907291
-0.00112389
-0.00135938
-0.00166497
0.000113904
4.71503e-05
-0.000122845
-0.000316944
-0.000506829
-0.000702854
-0.000901137
-0.00111842
-0.00135518
-0.00166257
0.000116131
5.72336e-05
-0.000110044
-0.000305593
-0.00049812
-0.000695251
-0.000894641
-0.00111216
-0.00134948
-0.00165791
0.000117912
6.71702e-05
-9.6827e-05
-0.000293556
-0.000488941
-0.000687429
-0.000887986
-0.00110546
-0.00134266
-0.00165168
0.00011883
7.6972e-05
-8.31475e-05
-0.000281004
-0.000479496
-0.000679664
-0.000881663
-0.00109904
-0.0013354
-0.00164445
0.000119475
8.73752e-05
-6.86222e-05
-0.000268237
-0.000470525
-0.00067284
-0.000876506
-0.00109376
-0.0013279
-0.00163411
0.000120704
9.90302e-05
-5.1601e-05
-0.000254122
-0.00046052
-0.000666044
-0.000872241
-0.00109024
-0.00131991
-0.00161894
0.000122973
0.000112435
-3.32401e-05
-0.000237738
-0.000448526
-0.000654792
-0.000864267
-0.00108469
-0.00131285
-0.00160706
0.000122974
0.000122732
-1.90439e-05
-0.000226616
-0.000443573
-0.000654822
-0.000865348
-0.00108669
-0.00130822
-0.00159655
0.000118965
0.000128073
-1.24732e-05
-0.000221822
-0.000444144
-0.000661014
-0.000874872
-0.00108875
-0.00130331
-0.00159428
0.000113791
0.00012386
-1.59406e-05
-0.000226182
-0.000449889
-0.000669264
-0.000890044
-0.00109429
-0.00129693
-0.00158899
0.000107886
0.000108199
-3.22069e-05
-0.000240832
-0.000457905
-0.000671614
-0.000880594
-0.00108412
-0.00129231
-0.00158024
0.000106138
9.36383e-05
-5.46171e-05
-0.000257713
-0.000466914
-0.000672351
-0.00087193
-0.00107693
-0.00128496
-0.00156934
0.000106467
7.78045e-05
-7.37744e-05
-0.000269868
-0.000468569
-0.000665764
-0.0008615
-0.00106386
-0.00127523
-0.00155579
0.000106123
6.09588e-05
-9.42724e-05
-0.000284714
-0.000475569
-0.000667318
-0.000859548
-0.00106128
-0.00127491
-0.00155101
0.000104746
4.55279e-05
-0.000113339
-0.000299691
-0.000484652
-0.000672851
-0.000862435
-0.00106364
-0.00127819
-0.0015508
0.000103246
3.26577e-05
-0.000129309
-0.000313107
-0.000493897
-0.000680249
-0.000867978
-0.00106864
-0.00128409
-0.00155279
0.000101267
2.31785e-05
-0.000141767
-0.000324061
-0.000502637
-0.000688033
-0.00087518
-0.0010747
-0.00129194
-0.00156082
9.95959e-05
1.81711e-05
-0.000149242
-0.000331341
-0.000509262
-0.000693667
-0.000880063
-0.00107944
-0.0012987
-0.00156982
9.79726e-05
1.68346e-05
-0.000152288
-0.000335717
-0.000514366
-0.000698162
-0.000883719
-0.00108328
-0.00130405
-0.00157903
9.66993e-05
1.81735e-05
-0.000152255
-0.000337679
-0.000518057
-0.000701419
-0.00088672
-0.00108632
-0.00130874
-0.00158782
9.55972e-05
1.9783e-05
-0.000151196
-0.000338422
-0.000520624
-0.000704125
-0.000889598
-0.00108956
-0.00131217
-0.00159303
9.45844e-05
1.99553e-05
-0.000150753
-0.000339206
-0.000522288
-0.00070639
-0.000892053
-0.00109272
-0.00131399
-0.00159229
9.38079e-05
1.93759e-05
-0.000151479
-0.000340055
-0.000523584
-0.000707815
-0.000893912
-0.00109446
-0.00131596
-0.00159353
9.3614e-05
1.93546e-05
-0.000151805
-0.000340165
-0.000523915
-0.000708137
-0.000894293
-0.00109482
-0.00131677
-0.00159636
3.81189e-05
-0.00012566
-0.000303815
-0.000458611
-0.000612329
-0.000773826
-0.000928627
-0.00108367
-0.00123087
-0.00139974
3.72934e-05
-0.000126514
-0.000304748
-0.000459503
-0.000613273
-0.000774734
-0.000929566
-0.00108468
-0.00123171
-0.00140271
3.7267e-05
-0.000126495
-0.00030504
-0.000459991
-0.000613956
-0.000775579
-0.000930541
-0.00108617
-0.00123321
-0.00140838
3.73339e-05
-0.000125952
-0.000304785
-0.000460054
-0.000614283
-0.000776192
-0.000931431
-0.00108793
-0.00123529
-0.00141603
3.77435e-05
-0.000124736
-0.000303942
-0.000459718
-0.000614313
-0.000776647
-0.000932348
-0.0010901
-0.00123836
-0.00142525
3.84044e-05
-0.000122937
-0.000302552
-0.000458994
-0.000614051
-0.000776939
-0.000933345
-0.00109264
-0.00124258
-0.00143575
3.93752e-05
-0.000120523
-0.00030057
-0.00045785
-0.000613474
-0.000777069
-0.000934469
-0.00109558
-0.00124791
-0.00144739
4.06627e-05
-0.000117504
-0.000297978
-0.000456272
-0.000612554
-0.000777044
-0.00093574
-0.00109889
-0.00125427
-0.00146007
4.22964e-05
-0.000113863
-0.000294763
-0.000454233
-0.000611271
-0.000776835
-0.000937158
-0.00110254
-0.00126157
-0.00147368
4.42952e-05
-0.00010959
-0.000290929
-0.000451706
-0.000609615
-0.000776407
-0.000938637
-0.00110651
-0.0012697
-0.00148813
4.66786e-05
-0.000104677
-0.000286462
-0.000448659
-0.000607579
-0.000775727
-0.000940084
-0.00111078
-0.00127855
-0.00150332
4.9459e-05
-9.91225e-05
-0.000281342
-0.000445057
-0.000605136
-0.00077478
-0.000941423
-0.00111529
-0.00128795
-0.00151911
5.26422e-05
-9.29328e-05
-0.000275542
-0.000440864
-0.000602254
-0.000773541
-0.000942623
-0.00111995
-0.00129774
-0.00153537
5.62206e-05
-8.61216e-05
-0.000269033
-0.00043605
-0.000598898
-0.000771982
-0.000943632
-0.00112463
-0.00130775
-0.00155194
6.0174e-05
-7.87012e-05
-0.000261784
-0.000430593
-0.000595037
-0.000770066
-0.000944391
-0.00112921
-0.00131777
-0.0015686
6.44645e-05
-7.06796e-05
-0.000253776
-0.000424482
-0.000590647
-0.000767754
-0.000944823
-0.00113353
-0.00132762
-0.00158512
6.90388e-05
-6.20582e-05
-0.000245007
-0.000417721
-0.000585724
-0.000765007
-0.000944845
-0.00113746
-0.00133708
-0.00160122
7.38216e-05
-5.28493e-05
-0.000235502
-0.000410339
-0.000580287
-0.000761798
-0.000944369
-0.00114082
-0.0013459
-0.00161657
7.87269e-05
-4.3088e-05
-0.000225311
-0.00040238
-0.000574368
-0.0007581
-0.000943315
-0.00114348
-0.00135386
-0.00163083
8.36387e-05
-3.28598e-05
-0.000214512
-0.000393913
-0.000568018
-0.000753905
-0.000941624
-0.00114529
-0.00136072
-0.00164364
8.84531e-05
-2.22694e-05
-0.000203192
-0.000384998
-0.00056128
-0.000749205
-0.000939245
-0.00114614
-0.00136625
-0.00165467
9.3025e-05
-1.14717e-05
-0.000191464
-0.000375709
-0.000554212
-0.000744025
-0.000936164
-0.00114592
-0.00137028
-0.00166363
9.72752e-05
-5.83219e-07
-0.000179411
-0.000366075
-0.000546841
-0.000738372
-0.00093235
-0.00114456
-0.00137263
-0.00167028
0.000101075
1.02521e-05
-0.000167138
-0.000356132
-0.00053923
-0.000732311
-0.000927841
-0.00114204
-0.00137322
-0.00167447
0.000104433
2.10309e-05
-0.000154635
-0.000345771
-0.000531306
-0.0007258
-0.000922612
-0.00113836
-0.00137199
-0.00167613
0.000107253
3.15788e-05
-0.000142008
-0.00033512
-0.000523185
-0.000718844
-0.000916735
-0.00113357
-0.00136897
-0.00167526
0.000109703
4.19804e-05
-0.00012917
-0.000324025
-0.000514635
-0.000711315
-0.000910217
-0.0011277
-0.0013642
-0.00167191
0.000111804
5.22501e-05
-0.000115957
-0.000312275
-0.000505545
-0.000703366
-0.00090325
-0.00112083
-0.00135769
-0.00166614
0.000113934
6.26984e-05
-0.000102062
-0.000299538
-0.000495713
-0.000694965
-0.000895906
-0.00111316
-0.0013497
-0.00165844
0.000115569
7.32029e-05
-8.75654e-05
-0.000286112
-0.000485498
-0.000686586
-0.000888777
-0.00110543
-0.00134097
-0.00164947
0.000117669
8.50152e-05
-7.15415e-05
-0.0002716
-0.000475017
-0.000678298
-0.000882026
-0.00109793
-0.00133116
-0.00163655
0.000119561
9.70567e-05
-5.36078e-05
-0.000256559
-0.000465355
-0.000672248
-0.000878281
-0.00109521
-0.00132424
-0.00162366
0.00012268
0.000111848
-3.43411e-05
-0.000240332
-0.00045461
-0.00066437
-0.000871691
-0.00108882
-0.00131492
-0.00161177
0.000122583
0.000122334
-1.98134e-05
-0.00022709
-0.000445982
-0.000662384
-0.000872468
-0.00108725
-0.00131133
-0.00160643
0.000116634
0.000121805
-1.79258e-05
-0.000228007
-0.000449049
-0.000662387
-0.000870795
-0.00107951
-0.00129658
-0.00158821
0.000111397
0.000117747
-2.27875e-05
-0.000234251
-0.000454551
-0.000666843
-0.000875522
-0.00107631
-0.00128625
-0.0015757
0.000107748
0.00010758
-3.3294e-05
-0.000241455
-0.000455177
-0.000665805
-0.000871642
-0.00107398
-0.00128264
-0.00156894
0.000107064
9.59158e-05
-5.04443e-05
-0.000250472
-0.000456773
-0.000657532
-0.00085654
-0.00106087
-0.00127368
-0.00156032
0.000107255
7.94119e-05
-7.15561e-05
-0.000266036
-0.000463376
-0.000659323
-0.000854883
-0.00105828
-0.00127178
-0.00155582
0.00010679
6.21027e-05
-9.25944e-05
-0.000282314
-0.000471991
-0.00066353
-0.00085523
-0.00105839
-0.00127227
-0.00154974
0.000104971
4.60638e-05
-0.000112513
-0.000298478
-0.000483074
-0.000671143
-0.00086077
-0.00106246
-0.00127752
-0.00155104
0.000103207
3.29095e-05
-0.000129003
-0.000312463
-0.000493225
-0.000679376
-0.000867452
-0.00106798
-0.00128411
-0.00155381
0.00010094
2.30836e-05
-0.000141693
-0.000323889
-0.000502444
-0.000687836
-0.000875087
-0.00107456
-0.00129215
-0.00156119
9.91398e-05
1.78927e-05
-0.000149381
-0.000331451
-0.00050932
-0.000693844
-0.000880337
-0.00107976
-0.00129914
-0.00157071
9.74642e-05
1.64186e-05
-0.000152656
-0.000335793
-0.000514469
-0.000698204
-0.000884055
-0.00108307
-0.00130466
-0.00158101
9.60779e-05
1.76029e-05
-0.000152409
-0.000337789
-0.000518227
-0.000701646
-0.000886961
-0.00108671
-0.001309
-0.0015871
9.49635e-05
1.92265e-05
-0.000151548
-0.000338585
-0.000520856
-0.000704244
-0.00088983
-0.0010897
-0.00131216
-0.0015921
9.39863e-05
1.93803e-05
-0.000151102
-0.000339437
-0.000522421
-0.00070651
-0.000892123
-0.00109269
-0.00131389
-0.00159205
9.32593e-05
1.89058e-05
-0.00015154
-0.000340171
-0.00052341
-0.000707818
-0.000893497
-0.00109416
-0.00131523
-0.00159316
9.29559e-05
1.86167e-05
-0.000152035
-0.000340715
-0.000524035
-0.000708546
-0.00089433
-0.00109515
-0.00131633
-0.0015945
5.57727e-05
-0.00011034
-0.00029119
-0.000447497
-0.000602483
-0.000765669
-0.000921256
-0.00107834
-0.00122734
-0.00139974
5.50215e-05
-0.000111159
-0.000292071
-0.000448351
-0.000603374
-0.00076651
-0.000922099
-0.00107925
-0.00122811
-0.00140272
5.51153e-05
-0.00011109
-0.000292311
-0.00044881
-0.000604011
-0.000767293
-0.000922961
-0.00108066
-0.00122949
-0.00140845
5.53019e-05
-0.00011053
-0.000292045
-0.000448888
-0.000604346
-0.000767872
-0.000923795
-0.00108239
-0.00123158
-0.00141615
5.58214e-05
-0.00010933
-0.000291227
-0.000448615
-0.000604429
-0.000768334
-0.000924728
-0.00108456
-0.00123482
-0.00142546
5.65669e-05
-0.000107596
-0.000289909
-0.000448009
-0.00060427
-0.000768682
-0.000925826
-0.00108717
-0.00123924
-0.00143612
5.75861e-05
-0.000105303
-0.000288048
-0.000447052
-0.00060384
-0.000768918
-0.000927162
-0.00109025
-0.00124483
-0.001448
5.88726e-05
-0.000102468
-0.00028563
-0.000445733
-0.00060313
-0.000769059
-0.000928762
-0.00109377
-0.00125151
-0.00146096
6.04438e-05
-9.90754e-05
-0.000282662
-0.000444029
-0.000602124
-0.000769086
-0.000930651
-0.00109773
-0.00125918
-0.00147488
6.23074e-05
-9.51214e-05
-0.000279152
-0.000441913
-0.000600826
-0.000768998
-0.000932702
-0.00110212
-0.00126776
-0.00148966
6.44709e-05
-9.06019e-05
-0.000275101
-0.000439349
-0.000599245
-0.000768795
-0.000934758
-0.00110693
-0.00127711
-0.00150519
6.69366e-05
-8.5519e-05
-0.000270498
-0.0004363
-0.000597359
-0.000768457
-0.00093676
-0.00111209
-0.00128709
-0.00152133
6.97024e-05
-7.98761e-05
-0.000265324
-0.000432728
-0.000595138
-0.000767952
-0.00093867
-0.00111747
-0.00129753
-0.00153795
7.27531e-05
-7.36855e-05
-0.000259554
-0.000428616
-0.000592551
-0.00076723
-0.000940433
-0.00112295
-0.00130822
-0.00155488
7.60623e-05
-6.69589e-05
-0.000253153
-0.000423943
-0.000589564
-0.00076623
-0.000941989
-0.00112838
-0.00131898
-0.00157194
7.95906e-05
-5.97066e-05
-0.000246089
-0.000418705
-0.000586141
-0.000764883
-0.000943265
-0.0011336
-0.00132957
-0.00158889
8.32868e-05
-5.1939e-05
-0.000238344
-0.000412908
-0.00058225
-0.000763121
-0.000944171
-0.00113844
-0.00133977
-0.00160546
8.70855e-05
-4.36747e-05
-0.00022992
-0.000406559
-0.000577873
-0.000760887
-0.000944611
-0.00114272
-0.00134933
-0.00162132
9.09156e-05
-3.49426e-05
-0.000220832
-0.000399665
-0.000573005
-0.000758139
-0.00094448
-0.00114627
-0.00135799
-0.00163609
9.46887e-05
-2.57971e-05
-0.000211121
-0.000392246
-0.000567656
-0.000754847
-0.000943679
-0.0011489
-0.00136549
-0.00164941
9.83343e-05
-1.62984e-05
-0.00020083
-0.000384313
-0.000561837
-0.000750977
-0.000942115
-0.00115045
-0.00137159
-0.00166089
0.000101747
-6.54941e-06
-0.000190031
-0.000375891
-0.000555567
-0.000746513
-0.000939725
-0.00115081
-0.00137606
-0.00167018
0.000104899
3.3853e-06
-0.00017876
-0.000366971
-0.000548844
-0.00074143
-0.000936449
-0.00114985
-0.0013787
-0.00167699
0.000107692
1.34009e-05
-0.000167082
-0.000357547
-0.000541687
-0.000735742
-0.000932276
-0.00114755
-0.00137938
-0.00168109
0.000110174
2.35171e-05
-0.000154961
-0.000347522
-0.000533986
-0.000729426
-0.00092715
-0.00114387
-0.00137803
-0.00168234
0.000112277
3.36592e-05
-0.000142557
-0.000336947
-0.000525886
-0.000722481
-0.000921196
-0.0011389
-0.00137472
-0.00168108
0.000114162
4.38008e-05
-0.00012975
-0.000325743
-0.00051721
-0.000714723
-0.000914408
-0.00113266
-0.00136944
-0.00167712
0.000115761
5.38609e-05
-0.000116501
-0.000313845
-0.000507913
-0.000706504
-0.000907133
-0.00112539
-0.00136233
-0.00167059
0.000117516
6.41924e-05
-0.000102485
-0.000300885
-0.000497782
-0.000697777
-0.000899471
-0.00111732
-0.00135367
-0.00166207
0.000118808
7.45728e-05
-8.7925e-05
-0.000287352
-0.000487406
-0.000689103
-0.0008919
-0.00110899
-0.00134406
-0.00165206
0.000119894
8.58142e-05
-7.24245e-05
-0.000273739
-0.000477954
-0.000681834
-0.000885616
-0.00110154
-0.00133418
-0.0016393
0.000121037
9.78057e-05
-5.47195e-05
-0.00025965
-0.000469124
-0.000676121
-0.000881892
-0.00109753
-0.00132677
-0.00162603
0.000124698
0.000113146
-3.29029e-05
-0.00023902
-0.000453453
-0.000661234
-0.000866197
-0.00108671
-0.00131647
-0.00161286
0.000125428
0.000124708
-1.71474e-05
-0.000224909
-0.000441889
-0.000657384
-0.000872497
-0.00109127
-0.00131336
-0.00160563
0.00012224
0.000129601
-1.17123e-05
-0.000221225
-0.00044228
-0.000657183
-0.000868138
-0.00107896
-0.00129513
-0.00158371
0.00011683
0.000124333
-1.74937e-05
-0.000228246
-0.000446773
-0.000657824
-0.00086853
-0.00107146
-0.00127864
-0.00156397
0.000113434
0.000114987
-2.70566e-05
-0.000235024
-0.000447705
-0.000659603
-0.000867546
-0.00107347
-0.001282
-0.00156295
0.000113046
0.000103684
-4.21505e-05
-0.000241618
-0.000446888
-0.000649932
-0.000853509
-0.00106394
-0.00127909
-0.00156271
0.000111665
8.42299e-05
-6.65225e-05
-0.000260141
-0.00045738
-0.000653433
-0.000851568
-0.00105611
-0.00127086
-0.0015552
0.000110298
6.55838e-05
-8.93235e-05
-0.000278397
-0.00046828
-0.000659418
-0.000852437
-0.00105586
-0.0012712
-0.00155006
0.000107946
4.87637e-05
-0.000109926
-0.000295751
-0.00048039
-0.000668369
-0.000858619
-0.00106059
-0.00127639
-0.00154997
0.000105655
3.49828e-05
-0.000127022
-0.000310545
-0.000491365
-0.000677644
-0.000865893
-0.00106683
-0.00128319
-0.00155246
0.000103163
2.49226e-05
-0.000140094
-0.000322348
-0.000500967
-0.000686481
-0.00087385
-0.00107357
-0.00129136
-0.00156081
0.000101079
1.94298e-05
-0.000148074
-0.000330261
-0.000508196
-0.000692916
-0.000879711
-0.00107908
-0.00129871
-0.00157068
9.91928e-05
1.77974e-05
-0.000151307
-0.000334535
-0.000513395
-0.000697346
-0.000883376
-0.00108283
-0.00130448
-0.00157955
9.77753e-05
1.89891e-05
-0.000151369
-0.000336705
-0.000517205
-0.000700631
-0.00088614
-0.00108578
-0.00130839
-0.00158732
9.65636e-05
2.02647e-05
-0.000150347
-0.000337575
-0.00051977
-0.000703401
-0.000889121
-0.00108936
-0.00131152
-0.00158961
9.55941e-05
2.07139e-05
-0.000149884
-0.00033829
-0.000521279
-0.000705475
-0.000891116
-0.00109183
-0.00131301
-0.00159118
9.49312e-05
2.04037e-05
-0.000150286
-0.00033909
-0.000522207
-0.000706838
-0.000892255
-0.00109333
-0.00131402
-0.00159213
9.45981e-05
1.9949e-05
-0.00015108
-0.000339617
-0.000522642
-0.000707332
-0.000892898
-0.00109374
-0.00131539
-0.00159556
6.59784e-05
-0.000102109
-0.000285208
-0.000442615
-0.000599646
-0.000764609
-0.000921844
-0.00108085
-0.00123166
-0.00140764
6.52683e-05
-0.000102914
-0.000286051
-0.000443438
-0.000600506
-0.000765427
-0.000922646
-0.00108168
-0.00123233
-0.00141066
6.53388e-05
-0.000102896
-0.000286312
-0.000443928
-0.000601198
-0.000766265
-0.000923582
-0.00108308
-0.00123376
-0.00141653
6.54934e-05
-0.000102404
-0.000286081
-0.000444057
-0.000601619
-0.000766909
-0.000924543
-0.00108486
-0.00123607
-0.00142436
6.59517e-05
-0.000101302
-0.000285328
-0.000443869
-0.000601837
-0.000767472
-0.000925687
-0.00108711
-0.00123959
-0.00143392
6.6612e-05
-9.96928e-05
-0.000284099
-0.000443389
-0.000601863
-0.000767948
-0.000927087
-0.00108985
-0.00124435
-0.00144496
6.751e-05
-9.75579e-05
-0.000282361
-0.000442616
-0.000601679
-0.000768348
-0.000928838
-0.0010931
-0.00125033
-0.00145734
6.86301e-05
-9.49239e-05
-0.000280106
-0.000441558
-0.00060128
-0.000768686
-0.000930945
-0.00109688
-0.00125742
-0.0014709
6.9978e-05
-9.17926e-05
-0.000277333
-0.000440197
-0.000600661
-0.000768964
-0.000933317
-0.00110122
-0.00126556
-0.00148553
7.155e-05
-8.81655e-05
-0.000274086
-0.000438507
-0.000599805
-0.000769206
-0.000935809
-0.00110613
-0.00127466
-0.00150108
7.33426e-05
-8.40484e-05
-0.000270384
-0.000436458
-0.000598683
-0.000769415
-0.000938373
-0.00111155
-0.00128456
-0.00151737
7.5347e-05
-7.94569e-05
-0.000266242
-0.000434018
-0.000597266
-0.000769577
-0.00094097
-0.00111736
-0.00129512
-0.00153423
7.75446e-05
-7.44021e-05
-0.000261658
-0.000431148
-0.000595538
-0.000769663
-0.000943532
-0.00112344
-0.00130615
-0.00155145
7.99168e-05
-6.88982e-05
-0.000256599
-0.000427807
-0.000593501
-0.000769635
-0.000945978
-0.00112964
-0.00131746
-0.00156881
8.24357e-05
-6.29588e-05
-0.000251028
-0.000423961
-0.000591147
-0.000769434
-0.000948218
-0.00113581
-0.00132884
-0.00158613
8.50682e-05
-5.6584e-05
-0.000244892
-0.000419594
-0.000588466
-0.000768975
-0.000950162
-0.00114178
-0.00134004
-0.00160319
8.77739e-05
-4.97641e-05
-0.000238148
-0.000414705
-0.000585427
-0.000768159
-0.000951717
-0.00114735
-0.00135081
-0.00161974
9.05097e-05
-4.24907e-05
-0.000230761
-0.000409292
-0.000581981
-0.000766881
-0.000952788
-0.00115235
-0.00136088
-0.0016355
9.32251e-05
-3.47742e-05
-0.000222716
-0.000403344
-0.000578067
-0.000765048
-0.000953277
-0.00115656
-0.00136998
-0.00165015
9.58746e-05
-2.66353e-05
-0.000214005
-0.000396838
-0.00057363
-0.000762579
-0.000953065
-0.00115979
-0.00137782
-0.00166333
9.84099e-05
-1.81089e-05
-0.000204634
-0.000389742
-0.000568623
-0.000759415
-0.000952028
-0.00116182
-0.00138414
-0.00167467
0.000100806
-9.22702e-06
-0.00019461
-0.000382017
-0.000563005
-0.000755493
-0.00095004
-0.00116249
-0.00138868
-0.00168377
0.000103042
-2.41234e-08
-0.000183947
-0.000373616
-0.000556736
-0.000750768
-0.000947001
-0.00116165
-0.00139124
-0.00169031
0.000105124
9.48087e-06
-0.000172642
-0.000364462
-0.000549769
-0.000745198
-0.000942834
-0.00115921
-0.00139164
-0.00169402
0.000107087
1.9308e-05
-0.000160679
-0.000354423
-0.000542018
-0.000738689
-0.000937466
-0.00115512
-0.00138977
-0.00169477
0.000108937
2.93816e-05
-0.000148101
-0.000343647
-0.000533664
-0.000731376
-0.000931046
-0.00114956
-0.00138571
-0.0016926
0.000110788
3.96972e-05
-0.000134916
-0.000332016
-0.000524458
-0.000722994
-0.000923498
-0.00114246
-0.00137942
-0.00168745
0.000112632
5.01874e-05
-0.000121063
-0.00031943
-0.000514397
-0.000713887
-0.000915274
-0.00113417
-0.00137117
-0.00167962
0.000114592
6.0966e-05
-0.000106366
-0.000305715
-0.000503428
-0.000704159
-0.000906574
-0.00112495
-0.00136125
-0.00166965
0.000116649
7.23552e-05
-9.0648e-05
-0.000291037
-0.00049195
-0.000694372
-0.000897925
-0.0011154
-0.00135019
-0.0016577
0.000118574
8.5015e-05
-7.32398e-05
-0.000275779
-0.000481018
-0.000686139
-0.000890803
-0.00110716
-0.00133922
-0.00164297
0.000121341
9.97808e-05
-5.32957e-05
-0.00025921
-0.000469672
-0.000677845
-0.000883604
-0.00109993
-0.00132848
-0.00162584
0.000123083
0.000112036
-3.66788e-05
-0.000245353
-0.000458618
-0.000666078
-0.000871632
-0.00108592
-0.00131166
-0.00160501
0.000125656
0.000126171
-1.97865e-05
-0.000228362
-0.000442732
-0.000650793
-0.000862293
-0.00108203
-0.00130386
-0.00159059