/*--------------------------------*- C++ -*----------------------------------*\
| =========                 |                                                 |
| \\      /  F ield         | foam-extend: Open Source CFD                    |
|  \\    /   O peration     | Version:     3.2                                |
|   \\  /    A nd           | Web:         http://www.foam-extend.org         |
|    \\/     M anipulation  | For copyright notice see file Copyright         |
\*---------------------------------------------------------------------------*/
FoamFile
{
    version     2.0;
    format      ascii;
    class       surfaceScalarField;
    location    "2000000";
    object      phi;
}
// * * * * * * * * * * * * * * * * * * * * * * * * * * * * * * * * * * * * * //

dimensions      [0 3 -1 0 0 0 0];

internalField   nonuniform List<scalar> 
13900
(
0.0105416
-2.30345e-08
-0.00522166
0.0105416
-2.36592e-08
-0.00522166
0.0105416
-2.35645e-08
-0.00522166
0.0105416
-2.19442e-08
-0.00522165
0.0105417
-2.09217e-08
-0.00522165
0.0105417
-1.84709e-08
-0.00522165
0.0105417
-1.66089e-08
-0.00522164
0.0105417
-1.37792e-08
-0.00522164
0.0105417
-7.4502e-09
-0.00522162
1.31319e-08
-0.00522161
0.0145378
-4.4221e-08
-0.00694398
0.0145379
-4.62107e-08
-0.00694398
0.0145379
-4.79162e-08
-0.00694397
0.0145379
-4.62675e-08
-0.00694397
0.0145379
-4.52283e-08
-0.00694397
0.0145379
-4.15794e-08
-0.00694396
0.0145379
-3.83469e-08
-0.00694396
0.014538
-3.35453e-08
-0.00694395
0.014538
-1.98254e-08
-0.00694394
1.27125e-08
-0.00694393
0.0173614
-6.46859e-08
-0.0080326
0.0173615
-6.76813e-08
-0.0080326
0.0173615
-7.12159e-08
-0.0080326
0.0173615
-7.00125e-08
-0.00803259
0.0173615
-6.94584e-08
-0.00803259
0.0173615
-6.52629e-08
-0.00803259
0.0173615
-6.11922e-08
-0.00803258
0.0173616
-5.4856e-08
-0.00803258
0.0173616
-3.49798e-08
-0.00803257
5.63726e-09
-0.00803256
0.0198441
-8.46527e-08
-0.00889738
0.0198441
-8.83841e-08
-0.00889737
0.0198441
-9.34291e-08
-0.00889737
0.0198441
-9.27381e-08
-0.00889737
0.0198442
-9.27259e-08
-0.00889736
0.0198442
-8.82418e-08
-0.00889736
0.0198442
-8.362e-08
-0.00889736
0.0198442
-7.57319e-08
-0.00889735
0.0198442
-5.09834e-08
-0.00889734
-5.08488e-09
-0.00889733
0.0222089
-1.04175e-07
-0.00964282
0.0222089
-1.08461e-07
-0.00964282
0.0222089
-1.14716e-07
-0.00964282
0.0222089
-1.14536e-07
-0.00964281
0.022209
-1.1501e-07
-0.00964281
0.022209
-1.10353e-07
-0.00964281
0.022209
-1.0525e-07
-0.0096428
0.022209
-9.58219e-08
-0.0096428
0.022209
-6.7352e-08
-0.00964278
-1.76642e-08
-0.00964277
0.0245556
-1.23219e-07
-0.0103093
0.0245556
-1.27926e-07
-0.0103093
0.0245556
-1.35138e-07
-0.0103093
0.0245557
-1.35445e-07
-0.0103093
0.0245557
-1.36357e-07
-0.0103093
0.0245557
-1.3158e-07
-0.0103093
0.0245557
-1.26046e-07
-0.0103093
0.0245557
-1.15115e-07
-0.0103093
0.0245557
-8.39345e-08
-0.0103093
-3.14552e-08
-0.0103093
0.0269374
-1.41681e-07
-0.0109131
0.0269374
-1.46725e-07
-0.0109131
0.0269375
-1.546e-07
-0.0109131
0.0269375
-1.55404e-07
-0.0109131
0.0269375
-1.56725e-07
-0.0109131
0.0269375
-1.51854e-07
-0.0109131
0.0269375
-1.46e-07
-0.0109131
0.0269375
-1.33641e-07
-0.0109131
0.0269375
-1.00601e-07
-0.0109131
-4.61571e-08
-0.0109131
0.0293863
-1.59407e-07
-0.0114594
0.0293863
-1.64727e-07
-0.0114594
0.0293863
-1.72935e-07
-0.0114594
0.0293863
-1.74288e-07
-0.0114594
0.0293864
-1.75982e-07
-0.0114594
0.0293864
-1.71071e-07
-0.0114594
0.0293864
-1.65057e-07
-0.0114594
0.0293864
-1.51416e-07
-0.0114594
0.0293864
-1.1723e-07
-0.0114594
-6.15186e-08
-0.0114594
0.0319231
-1.762e-07
-0.0119472
0.0319231
-1.81722e-07
-0.0119472
0.0319231
-1.9006e-07
-0.0119472
0.0319231
-1.91963e-07
-0.0119472
0.0319231
-1.93961e-07
-0.0119472
0.0319231
-1.89126e-07
-0.0119472
0.0319232
-1.83072e-07
-0.0119472
0.0319232
-1.68358e-07
-0.0119472
0.0319232
-1.33649e-07
-0.0119472
-7.72912e-08
-0.0119472
0.0345618
-1.91827e-07
-0.0123718
0.0345618
-1.97465e-07
-0.0123718
0.0345618
-2.05826e-07
-0.0123718
0.0345618
-2.08284e-07
-0.0123718
0.0345618
-2.10556e-07
-0.0123718
0.0345618
-2.05904e-07
-0.0123718
0.0345618
-1.99734e-07
-0.0123718
0.0345618
-1.84328e-07
-0.0123718
0.0345618
-1.49641e-07
-0.0123718
-9.324e-08
-0.0123717
0.0373116
-2.06023e-07
-0.0127258
0.0373116
-2.1169e-07
-0.0127258
0.0373116
-2.20041e-07
-0.0127258
0.0373116
-2.23059e-07
-0.0127258
0.0373117
-2.25592e-07
-0.0127258
0.0373117
-2.21191e-07
-0.0127257
0.0373117
-2.14922e-07
-0.0127257
0.0373117
-1.99173e-07
-0.0127257
0.0373117
-1.64959e-07
-0.0127257
-1.09094e-07
-0.0127257
0.0401782
-2.18493e-07
-0.0129998
0.0401782
-2.24115e-07
-0.0129998
0.0401782
-2.3248e-07
-0.0129998
0.0401782
-2.3606e-07
-0.0129998
0.0401782
-2.38834e-07
-0.0129998
0.0401782
-2.34738e-07
-0.0129998
0.0401782
-2.28446e-07
-0.0129998
0.0401782
-2.12699e-07
-0.0129998
0.0401782
-1.79348e-07
-0.0129997
-1.24579e-07
-0.0129997
0.0431635
-2.28931e-07
-0.0131832
0.0431635
-2.34461e-07
-0.0131832
0.0431635
-2.42894e-07
-0.0131832
0.0431635
-2.47019e-07
-0.0131832
0.0431635
-2.5e-07
-0.0131832
0.0431636
-2.46265e-07
-0.0131832
0.0431636
-2.40063e-07
-0.0131832
0.0431636
-2.24643e-07
-0.0131832
0.0431636
-1.92521e-07
-0.0131831
-1.39395e-07
-0.0131831
0.0462665
-2.37028e-07
-0.0132644
0.0462665
-2.42461e-07
-0.0132644
0.0462665
-2.51013e-07
-0.0132644
0.0462665
-2.5564e-07
-0.0132644
0.0462665
-2.58776e-07
-0.0132643
0.0462665
-2.55467e-07
-0.0132643
0.0462666
-2.49484e-07
-0.0132643
0.0462666
-2.34692e-07
-0.0132643
0.0462666
-2.04144e-07
-0.0132643
-1.53201e-07
-0.0132643
0.0494827
-2.42471e-07
-0.0132312
0.0494827
-2.47833e-07
-0.0132312
0.0494827
-2.56528e-07
-0.0132311
0.0494827
-2.61601e-07
-0.0132311
0.0494827
-2.64834e-07
-0.0132311
0.0494827
-2.62018e-07
-0.0132311
0.0494827
-2.56381e-07
-0.0132311
0.0494827
-2.42483e-07
-0.0132311
0.0494827
-2.13845e-07
-0.0132311
-1.65613e-07
-0.013231
0.052804
-2.44927e-07
-0.0130716
0.052804
-2.50252e-07
-0.0130716
0.052804
-2.59086e-07
-0.0130715
0.052804
-2.6455e-07
-0.0130715
0.052804
-2.67836e-07
-0.0130715
0.052804
-2.65584e-07
-0.0130715
0.052804
-2.60399e-07
-0.0130715
0.052804
-2.47628e-07
-0.0130715
0.052804
-2.21209e-07
-0.0130715
-1.7619e-07
-0.0130714
0.0562187
-2.44036e-07
-0.0127744
0.0562187
-2.4934e-07
-0.0127743
0.0562187
-2.58292e-07
-0.0127743
0.0562187
-2.64113e-07
-0.0127743
0.0562188
-2.67431e-07
-0.0127743
0.0562188
-2.6581e-07
-0.0127743
0.0562188
-2.61168e-07
-0.0127743
0.0562188
-2.49718e-07
-0.0127743
0.0562188
-2.25795e-07
-0.0127742
-1.84448e-07
-0.0127742
0.0597115
-2.39406e-07
-0.0123298
0.0597115
-2.44684e-07
-0.0123298
0.0597115
-2.53728e-07
-0.0123298
0.0597115
-2.59897e-07
-0.0123298
0.0597115
-2.63263e-07
-0.0123298
0.0597115
-2.62327e-07
-0.0123298
0.0597115
-2.58306e-07
-0.0123297
0.0597115
-2.48339e-07
-0.0123297
0.0597115
-2.2714e-07
-0.0123297
-1.89866e-07
-0.0123297
0.0632629
-2.3064e-07
-0.0117308
0.0632629
-2.35873e-07
-0.0117308
0.0632629
-2.44984e-07
-0.0117308
0.0632629
-2.51516e-07
-0.0117308
0.0632629
-2.54976e-07
-0.0117308
0.0632629
-2.54762e-07
-0.0117307
0.0632629
-2.5144e-07
-0.0117307
0.0632629
-2.43081e-07
-0.0117307
0.0632629
-2.24777e-07
-0.0117307
-1.91899e-07
-0.0117306
0.0668499
-2.17358e-07
-0.0109737
0.0668499
-2.22525e-07
-0.0109737
0.0668499
-2.31681e-07
-0.0109737
0.0668499
-2.38614e-07
-0.0109737
0.0668499
-2.42243e-07
-0.0109736
0.0668499
-2.42768e-07
-0.0109736
0.0668499
-2.40225e-07
-0.0109736
0.0668499
-2.33557e-07
-0.0109736
0.0668499
-2.18256e-07
-0.0109735
-1.89996e-07
-0.0109735
0.0704462
-1.9924e-07
-0.0100598
0.0704462
-2.04329e-07
-0.0100598
0.0704462
-2.13517e-07
-0.0100597
0.0704462
-2.20902e-07
-0.0100597
0.0704462
-2.24821e-07
-0.0100597
0.0704462
-2.26065e-07
-0.0100597
0.0704462
-2.24394e-07
-0.0100597
0.0704462
-2.1944e-07
-0.0100596
0.0704462
-2.07185e-07
-0.0100596
-1.83628e-07
-0.0100596
0.0740229
-1.76076e-07
-0.00899653
0.0740229
-1.81101e-07
-0.00899652
0.0740229
-1.90312e-07
-0.0089965
0.0740229
-1.9821e-07
-0.00899647
0.0740229
-2.02612e-07
-0.00899645
0.0740229
-2.04489e-07
-0.00899643
0.0740229
-2.03818e-07
-0.00899641
0.0740229
-2.00515e-07
-0.00899638
0.0740229
-1.91299e-07
-0.00899634
-1.72319e-07
-0.0089963
0.0775496
-1.47837e-07
-0.0077991
0.0775496
-1.52838e-07
-0.00779908
0.0775496
-1.62073e-07
-0.00779906
0.0775496
-1.70546e-07
-0.00779904
0.0775496
-1.75704e-07
-0.00779902
0.0775496
-1.78062e-07
-0.00779899
0.0775496
-1.78558e-07
-0.00779897
0.0775496
-1.76733e-07
-0.00779894
0.0775496
-1.70506e-07
-0.0077989
-1.55741e-07
-0.00779886
0.0809964
-1.14921e-07
-0.00649162
0.0809964
-1.19794e-07
-0.0064916
0.0809964
-1.29152e-07
-0.00649158
0.0809964
-1.38269e-07
-0.00649156
0.0809964
-1.43923e-07
-0.00649153
0.0809964
-1.47237e-07
-0.00649151
0.0809964
-1.48563e-07
-0.00649148
0.0809964
-1.4835e-07
-0.00649145
0.0809964
-1.44778e-07
-0.00649142
-1.34556e-07
-0.00649137
0.0843361
-7.84428e-08
-0.00510832
0.084336
-8.31309e-08
-0.0051083
0.084336
-9.25121e-08
-0.00510828
0.084336
-1.02885e-07
-0.00510826
0.084336
-1.08501e-07
-0.00510823
0.084336
-1.13271e-07
-0.0051082
0.084336
-1.15064e-07
-0.00510818
0.084336
-1.16675e-07
-0.00510815
0.084336
-1.1524e-07
-0.00510811
-1.09485e-07
-0.00510806
0.0875473
-4.05721e-08
-0.00369412
0.0875473
-4.50591e-08
-0.0036941
0.0875473
-5.49534e-08
-0.00369408
0.0875473
-6.59438e-08
-0.00369406
0.0875473
-7.26618e-08
-0.00369403
0.0875473
-7.78881e-08
-0.00369401
0.0875472
-8.09824e-08
-0.00369397
0.0875472
-8.32827e-08
-0.00369395
0.0875472
-8.4511e-08
-0.00369391
-8.27362e-08
-0.00369386
0.0906187
-3.82511e-09
-0.00230434
0.0906187
-8.16446e-09
-0.00230433
0.0906187
-1.8702e-08
-0.0023043
0.0906187
-3.06411e-08
-0.00230428
0.0906187
-3.84985e-08
-0.00230425
0.0906187
-4.43552e-08
-0.00230423
0.0906187
-4.8543e-08
-0.0023042
0.0906187
-5.12571e-08
-0.00230417
0.0906187
-5.49207e-08
-0.00230413
-5.61699e-08
-0.00230408
0.0935534
3.01201e-08
-0.00100303
0.0935534
2.57968e-08
-0.00100302
0.0935534
1.43815e-08
-0.00100299
0.0935534
1.19666e-09
-0.00100297
0.0935534
-7.92099e-09
-0.00100294
0.0935533
-1.44106e-08
-0.00100292
0.0935533
-1.94247e-08
-0.00100289
0.0935533
-2.20844e-08
-0.00100286
0.0935533
-2.79155e-08
-0.00100282
-3.13056e-08
-0.00100277
0.0963737
5.52238e-08
0.000140626
0.0963737
5.07159e-08
0.000140637
0.0963737
3.8225e-08
0.00014066
0.0963736
2.37713e-08
0.000140681
0.0963736
1.33772e-08
0.000140711
0.0963736
6.48597e-09
0.000140731
0.0963736
1.24758e-09
0.000140764
0.0963736
-6.57942e-10
0.000140786
0.0963736
-8.54571e-09
0.00014083
-1.39454e-08
0.000140872
0.0991254
6.5624e-08
0.00105837
0.0991254
6.10279e-08
0.00105838
0.0991254
4.75407e-08
0.0010584
0.0991254
3.23846e-08
0.00105842
0.0991254
2.09086e-08
0.00105845
0.0991254
1.41022e-08
0.00105847
0.0991254
9.41416e-09
0.0010585
0.0991254
9.22825e-09
0.00105852
0.0991253
-9.68273e-10
0.00105856
-1.06664e-08
0.0010586
0.10188
7.1918e-08
0.00169192
0.10188
6.74916e-08
0.00169192
0.10188
5.24986e-08
0.00169195
0.10188
3.84778e-08
0.00169196
0.10188
2.56801e-08
0.00169199
0.10188
2.03065e-08
0.00169201
0.10188
1.53817e-08
0.00169205
0.10188
1.99482e-08
0.00169206
0.10188
6.47222e-09
0.00169211
-1.29213e-08
0.00169214
0.104735
7.77068e-08
0.00200473
0.104735
7.2377e-08
0.00200474
0.104735
5.65622e-08
0.00200476
0.104735
4.19037e-08
0.00200478
0.104735
3.04661e-08
0.0020048
0.104735
2.40169e-08
0.00200483
0.104735
2.05647e-08
0.00200486
0.104735
2.70402e-08
0.00200488
0.104735
2.08921e-08
0.00200491
-7.86363e-09
0.00200494
0.107805
8.56245e-08
0.00199559
0.107804
8.34963e-08
0.00199559
0.107804
6.97638e-08
0.00199561
0.107804
5.84464e-08
0.00199563
0.107804
5.2189e-08
0.00199565
0.107804
4.36367e-08
0.00199568
0.107804
4.03363e-08
0.0019957
0.107804
4.20089e-08
0.00199572
0.107804
3.67528e-08
0.00199575
1.82036e-08
0.00199579
0.111206
9.80587e-08
0.00171081
0.111206
9.59034e-08
0.00171081
0.111206
9.00343e-08
0.00171082
0.111206
8.32218e-08
0.00171084
0.111206
8.69229e-08
0.00171086
0.111206
9.01225e-08
0.00171089
0.111206
8.79218e-08
0.00171091
0.111206
6.94588e-08
0.00171093
0.111206
6.14453e-08
0.00171094
6.44899e-08
0.00171098
0.115036
1.10709e-07
0.0012495
0.115036
1.1262e-07
0.0012495
0.115035
1.02061e-07
0.00124951
0.115035
1.04398e-07
0.00124952
0.115035
1.16185e-07
0.00124953
0.115035
1.2074e-07
0.00124954
0.115035
1.26783e-07
0.00124956
0.115035
1.18441e-07
0.00124956
0.115035
1.07001e-07
0.00124958
9.19975e-08
0.00124959
0.119332
1.27618e-07
0.000752431
0.119332
1.2885e-07
0.000752426
0.119332
1.41011e-07
0.000752427
0.119332
1.4944e-07
0.000752414
0.119332
1.54956e-07
0.000752412
0.119332
1.47405e-07
0.000752404
0.119332
1.51488e-07
0.000752408
0.119332
1.32792e-07
0.00075241
0.119332
1.22366e-07
0.000752397
1.14112e-07
0.000752397
0.124053
1.36999e-07
0.000364747
0.124053
1.3776e-07
0.000364741
0.124053
1.56452e-07
0.000364729
0.124053
1.68044e-07
0.000364701
0.124053
1.73371e-07
0.000364692
0.124053
1.75115e-07
0.000364665
0.124053
1.71615e-07
0.000364659
0.124053
1.6732e-07
0.000364644
0.124053
1.60177e-07
0.000364621
1.57441e-07
0.000364585
0.129078
1.33293e-07
0.000174098
0.129077
1.39005e-07
0.00017409
0.129077
1.56815e-07
0.000174064
0.129077
1.7019e-07
0.000174039
0.129077
1.78027e-07
0.000173999
0.129077
1.7376e-07
0.000173977
0.129077
1.70358e-07
0.000173934
0.129077
1.63727e-07
0.00017392
0.129077
1.59908e-07
0.000173864
1.55861e-07
0.000173811
0.134265
1.20808e-07
0.000159899
0.134265
1.26992e-07
0.000159886
0.134265
1.4225e-07
0.000159854
0.134265
1.56572e-07
0.00015982
0.134265
1.64121e-07
0.000159778
0.134265
1.6472e-07
0.000159744
0.134265
1.64317e-07
0.000159698
0.134265
1.61462e-07
0.000159668
0.134265
1.60041e-07
0.000159604
1.54737e-07
0.000159526
0.13955
1.15331e-07
0.000215822
0.13955
1.20727e-07
0.000215804
0.13955
1.33101e-07
0.000215765
0.13955
1.45819e-07
0.000215728
0.13955
1.52379e-07
0.00021568
0.13955
1.56061e-07
0.000215642
0.13955
1.57244e-07
0.000215591
0.13955
1.57572e-07
0.000215551
0.13955
1.5743e-07
0.000215481
1.56496e-07
0.000215392
0.144973
1.10117e-07
0.000247873
0.144973
1.14537e-07
0.00024785
0.144973
1.23648e-07
0.000247809
0.144973
1.33612e-07
0.000247769
0.144973
1.39719e-07
0.000247717
0.144973
1.43709e-07
0.000247678
0.144973
1.46817e-07
0.000247621
0.144973
1.4855e-07
0.00024758
0.144973
1.50549e-07
0.0002475
1.46786e-07
0.000247418
0.150606
9.85796e-08
0.000245111
0.150606
1.01179e-07
0.000245087
0.150606
1.08063e-07
0.000245048
0.150606
1.14477e-07
0.000245003
0.150606
1.19635e-07
0.000244959
0.150606
1.22861e-07
0.000244911
0.150606
1.26815e-07
0.000244866
0.150606
1.27985e-07
0.000244813
0.150606
1.31918e-07
0.000244745
1.37139e-07
0.000244654
0.156478
8.04605e-08
0.000239224
0.156478
8.15129e-08
0.0002392
0.156478
8.51509e-08
0.000239163
0.156478
8.88696e-08
0.000239123
0.156478
9.25575e-08
0.00023908
0.156478
9.50882e-08
0.000239036
0.156478
9.7723e-08
0.000238993
0.156478
9.96521e-08
0.000238947
0.156478
1.02303e-07
0.000238878
1.05633e-07
0.000238798
0.162585
6.28666e-08
0.000244715
0.162585
6.26818e-08
0.000244693
0.162585
6.3608e-08
0.00024466
0.162585
6.50098e-08
0.000244622
0.162585
6.75129e-08
0.000244586
0.162585
6.95278e-08
0.000244544
0.162585
7.11626e-08
0.000244507
0.162585
7.27207e-08
0.000244462
0.162585
7.5251e-08
0.0002444
8.09529e-08
0.000244324
0.168927
4.56637e-08
0.00025968
0.168927
4.48035e-08
0.000259661
0.168927
4.41134e-08
0.000259631
0.168927
4.43476e-08
0.000259595
0.168927
4.53658e-08
0.00025956
0.168927
4.71901e-08
0.000259522
0.168927
4.79128e-08
0.000259487
0.168927
4.96678e-08
0.000259445
0.168927
5.21014e-08
0.000259387
5.95833e-08
0.000259318
0.175508
2.91308e-08
0.00027881
0.175508
2.82417e-08
0.000278792
0.175508
2.79226e-08
0.000278761
0.175508
2.64976e-08
0.000278726
0.175508
2.76482e-08
0.000278687
0.175508
2.82623e-08
0.000278653
0.175508
2.97786e-08
0.000278614
0.175508
2.97447e-08
0.000278574
0.175508
3.4774e-08
0.000278513
4.36152e-08
0.000278454
0.18234
1.86931e-08
0.000297108
0.18234
1.87373e-08
0.00029709
0.18234
1.71545e-08
0.000297053
0.18234
1.74267e-08
0.00029702
0.18234
1.77842e-08
0.000296973
0.18234
1.88732e-08
0.000296942
0.18234
1.97172e-08
0.000296893
0.18234
2.19744e-08
0.000296857
0.18234
2.10012e-08
0.000296783
1.47142e-08
0.00029672
0.189436
1.14182e-08
0.000312329
0.189436
1.11884e-08
0.000312309
0.189436
1.19674e-08
0.000312272
0.189436
1.08236e-08
0.000312228
0.189436
1.15618e-08
0.000312187
0.189436
1.11854e-08
0.000312143
0.189436
1.24096e-08
0.000312101
0.189436
1.19572e-08
0.000312053
0.189436
1.60207e-08
0.000311987
2.20119e-08
0.000311901
0.19681
4.21896e-09
0.000325389
0.19681
4.23318e-09
0.000325368
0.19681
4.32936e-09
0.000325326
0.19681
4.53998e-09
0.000325285
0.19681
3.94282e-09
0.000325235
0.19681
4.52457e-09
0.000325194
0.19681
4.11356e-09
0.000325143
0.196809
5.17437e-09
0.000325098
0.196809
6.62765e-09
0.000325017
9.58765e-09
0.000324925
0.204472
0.000338068
0.204472
0.000338045
0.204472
0.000338001
0.204472
0.00033796
0.204472
0.000337903
0.204472
0.000337865
0.204472
0.000337805
0.204472
0.000337762
0.204472
0.000337672
0.000337589
0.0105416
-2.70886e-08
-0.00522165
0.0105416
-2.72496e-08
-0.00522165
0.0105416
-2.73436e-08
-0.00522165
0.0105417
-2.56936e-08
-0.00522165
0.0105417
-2.49354e-08
-0.00522164
0.0105417
-2.24799e-08
-0.00522164
0.0105417
-2.07322e-08
-0.00522163
0.0105417
-1.75316e-08
-0.00522163
0.0105417
-1.14981e-08
-0.00522161
9.42283e-09
-0.0052216
0.0145379
-4.9667e-08
-0.00694397
0.0145379
-5.10066e-08
-0.00694397
0.0145379
-5.28216e-08
-0.00694397
0.0145379
-5.11401e-08
-0.00694396
0.0145379
-5.0513e-08
-0.00694396
0.0145379
-4.6803e-08
-0.00694396
0.014538
-4.38425e-08
-0.00694395
0.014538
-3.855e-08
-0.00694395
0.014538
-2.52741e-08
-0.00694393
7.53983e-09
-0.00694392
0.0173615
-6.98344e-08
-0.00803259
0.0173615
-7.2126e-08
-0.00803259
0.0173615
-7.56159e-08
-0.00803259
0.0173615
-7.43957e-08
-0.00803259
0.0173615
-7.43193e-08
-0.00803258
0.0173615
-7.00193e-08
-0.00803258
0.0173616
-6.636e-08
-0.00803257
0.0173616
-5.94547e-08
-0.00803257
0.0173616
-4.01387e-08
-0.00803256
8.67754e-10
-0.00803255
0.0198441
-8.82276e-08
-0.00889737
0.0198441
-9.12505e-08
-0.00889737
0.0198441
-9.60765e-08
-0.00889737
0.0198442
-9.53979e-08
-0.00889736
0.0198442
-9.58433e-08
-0.00889736
0.0198442
-9.12921e-08
-0.00889736
0.0198442
-8.71503e-08
-0.00889735
0.0198442
-7.86585e-08
-0.00889735
0.0198442
-5.4555e-08
-0.00889733
-7.95593e-09
-0.00889732
0.0222089
-1.05137e-07
-0.00964282
0.0222089
-1.08729e-07
-0.00964281
0.0222089
-1.14603e-07
-0.00964281
0.022209
-1.14461e-07
-0.00964281
0.022209
-1.15317e-07
-0.00964281
0.022209
-1.10663e-07
-0.0096428
0.022209
-1.06083e-07
-0.0096428
0.022209
-9.61119e-08
-0.00964279
0.022209
-6.82385e-08
-0.00964278
-1.75561e-08
-0.00964277
0.0245556
-1.20688e-07
-0.0103093
0.0245557
-1.24715e-07
-0.0103093
0.0245557
-1.31426e-07
-0.0103093
0.0245557
-1.31777e-07
-0.0103093
0.0245557
-1.32969e-07
-0.0103093
0.0245557
-1.28268e-07
-0.0103093
0.0245557
-1.23297e-07
-0.0103093
0.0245557
-1.1189e-07
-0.0103093
0.0245557
-8.12092e-08
-0.0103093
-2.76082e-08
-0.0103093
0.0269375
-1.34896e-07
-0.0109131
0.0269375
-1.39255e-07
-0.0109131
0.0269375
-1.4659e-07
-0.0109131
0.0269375
-1.47402e-07
-0.0109131
0.0269375
-1.48893e-07
-0.0109131
0.0269375
-1.44138e-07
-0.0109131
0.0269375
-1.38892e-07
-0.0109131
0.0269375
-1.2614e-07
-0.0109131
0.0269376
-9.35026e-08
-0.0109131
-3.79183e-08
-0.0109131
0.0293863
-1.47694e-07
-0.0114594
0.0293863
-1.52328e-07
-0.0114594
0.0293864
-1.6001e-07
-0.0114594
0.0293864
-1.61298e-07
-0.0114594
0.0293864
-1.6305e-07
-0.0114594
0.0293864
-1.58256e-07
-0.0114594
0.0293864
-1.52892e-07
-0.0114594
0.0293864
-1.38963e-07
-0.0114594
0.0293864
-1.05107e-07
-0.0114594
-4.83146e-08
-0.0114594
0.0319231
-1.58958e-07
-0.0119472
0.0319231
-1.63814e-07
-0.0119472
0.0319231
-1.71642e-07
-0.0119472
0.0319231
-1.7339e-07
-0.0119472
0.0319232
-1.75353e-07
-0.0119472
0.0319232
-1.70599e-07
-0.0119472
0.0319232
-1.65216e-07
-0.0119472
0.0319232
-1.50358e-07
-0.0119472
0.0319232
-1.15935e-07
-0.0119472
-5.86085e-08
-0.0119472
0.0345618
-1.68519e-07
-0.0123718
0.0345618
-1.73535e-07
-0.0123718
0.0345618
-1.81381e-07
-0.0123718
0.0345618
-1.83582e-07
-0.0123718
0.0345618
-1.85724e-07
-0.0123718
0.0345618
-1.81164e-07
-0.0123718
0.0345619
-1.75606e-07
-0.0123718
0.0345619
-1.60214e-07
-0.0123718
0.0345619
-1.25834e-07
-0.0123718
-6.86113e-08
-0.0123717
0.0373116
-1.76161e-07
-0.0127258
0.0373117
-1.81271e-07
-0.0127258
0.0373117
-1.89067e-07
-0.0127258
0.0373117
-1.9173e-07
-0.0127258
0.0373117
-1.94048e-07
-0.0127258
0.0373117
-1.8976e-07
-0.0127257
0.0373117
-1.84032e-07
-0.0127257
0.0373117
-1.68431e-07
-0.0127257
0.0373117
-1.34596e-07
-0.0127257
-7.80922e-08
-0.0127257
0.0401782
-1.81628e-07
-0.0129998
0.0401782
-1.86769e-07
-0.0129998
0.0401782
-1.94503e-07
-0.0129998
0.0401782
-1.9764e-07
-0.0129998
0.0401782
-2.00139e-07
-0.0129998
0.0401782
-1.96172e-07
-0.0129998
0.0401783
-1.90346e-07
-0.0129998
0.0401783
-1.74866e-07
-0.0129998
0.0401783
-1.41996e-07
-0.0129997
-8.67986e-08
-0.0129997
0.0431635
-1.84633e-07
-0.0131832
0.0431635
-1.89761e-07
-0.0131832
0.0431636
-1.97464e-07
-0.0131832
0.0431636
-2.01087e-07
-0.0131832
0.0431636
-2.0377e-07
-0.0131832
0.0431636
-2.00165e-07
-0.0131832
0.0431636
-1.94346e-07
-0.0131832
0.0431636
-1.79306e-07
-0.0131832
0.0431636
-1.47769e-07
-0.0131832
-9.44477e-08
-0.0131831
0.0462665
-1.84873e-07
-0.0132644
0.0462666
-1.89982e-07
-0.0132644
0.0462666
-1.97712e-07
-0.0132644
0.0462666
-2.01822e-07
-0.0132644
0.0462666
-2.04682e-07
-0.0132644
0.0462666
-2.01485e-07
-0.0132643
0.0462666
-1.95794e-07
-0.0132643
0.0462666
-1.81483e-07
-0.0132643
0.0462666
-1.51613e-07
-0.0132643
-1.00722e-07
-0.0132643
0.0494827
-1.82038e-07
-0.0132312
0.0494827
-1.87163e-07
-0.0132312
0.0494827
-1.94993e-07
-0.0132312
0.0494827
-1.99581e-07
-0.0132311
0.0494827
-2.02601e-07
-0.0132311
0.0494827
-1.99869e-07
-0.0132311
0.0494828
-1.94432e-07
-0.0132311
0.0494828
-1.81096e-07
-0.0132311
0.0494828
-1.53197e-07
-0.0132311
-1.05268e-07
-0.013231
0.052804
-1.75827e-07
-0.0130716
0.052804
-1.81022e-07
-0.0130716
0.052804
-1.89026e-07
-0.0130716
0.052804
-1.94076e-07
-0.0130715
0.052804
-1.97238e-07
-0.0130715
0.052804
-1.95042e-07
-0.0130715
0.0528041
-1.89986e-07
-0.0130715
0.0528041
-1.77831e-07
-0.0130715
0.0528041
-1.52179e-07
-0.0130715
-1.07704e-07
-0.0130714
0.0562188
-1.65952e-07
-0.0127744
0.0562188
-1.71253e-07
-0.0127744
0.0562188
-1.79496e-07
-0.0127744
0.0562188
-1.84999e-07
-0.0127743
0.0562188
-1.8829e-07
-0.0127743
0.0562188
-1.86718e-07
-0.0127743
0.0562188
-1.82165e-07
-0.0127743
0.0562188
-1.71363e-07
-0.0127743
0.0562188
-1.48204e-07
-0.0127742
-1.07626e-07
-0.0127742
0.0597115
-1.52134e-07
-0.0123299
0.0597115
-1.57542e-07
-0.0123298
0.0597115
-1.66071e-07
-0.0123298
0.0597115
-1.72036e-07
-0.0123298
0.0597116
-1.7546e-07
-0.0123298
0.0597116
-1.74598e-07
-0.0123298
0.0597116
-1.70669e-07
-0.0123298
0.0597116
-1.61365e-07
-0.0123297
0.0597116
-1.40914e-07
-0.0123297
-1.04612e-07
-0.0123297
0.0632629
-1.34112e-07
-0.0117308
0.0632629
-1.39598e-07
-0.0117308
0.0632629
-1.48438e-07
-0.0117308
0.063263
-1.54895e-07
-0.0117308
0.063263
-1.58481e-07
-0.0117308
0.063263
-1.584e-07
-0.0117308
0.063263
-1.55205e-07
-0.0117307
0.063263
-1.47522e-07
-0.0117307
0.063263
-1.29957e-07
-0.0117307
-9.82331e-08
-0.0117307
0.06685
-1.11663e-07
-0.0109737
0.06685
-1.17185e-07
-0.0109737
0.06685
-1.26339e-07
-0.0109737
0.06685
-1.33338e-07
-0.0109737
0.06685
-1.37145e-07
-0.0109737
0.06685
-1.37889e-07
-0.0109736
0.06685
-1.35527e-07
-0.0109736
0.06685
-1.29556e-07
-0.0109736
0.06685
-1.15007e-07
-0.0109736
-8.80806e-08
-0.0109735
0.0704463
-8.46631e-08
-0.0100598
0.0704463
-9.01744e-08
-0.0100598
0.0704463
-9.9634e-08
-0.0100598
0.0704463
-1.07234e-07
-0.0100598
0.0704463
-1.11355e-07
-0.0100597
0.0704463
-1.1294e-07
-0.0100597
0.0704463
-1.11498e-07
-0.0100597
0.0704463
-1.07278e-07
-0.0100597
0.0704463
-9.58223e-08
-0.0100596
-7.3809e-08
-0.0100596
0.074023
-5.31555e-08
-0.00899656
0.074023
-5.86154e-08
-0.00899655
0.074023
-6.83731e-08
-0.00899653
0.074023
-7.66283e-08
-0.00899651
0.074023
-8.11995e-08
-0.00899648
0.074023
-8.36013e-08
-0.00899646
0.074023
-8.31629e-08
-0.00899644
0.074023
-8.06629e-08
-0.00899641
0.074023
-7.23166e-08
-0.00899638
-5.52089e-08
-0.00899633
0.0775497
-1.74505e-08
-0.00779913
0.0775497
-2.28198e-08
-0.00779912
0.0775497
-3.28776e-08
-0.0077991
0.0775497
-4.18499e-08
-0.00779908
0.0775497
-4.70227e-08
-0.00779905
0.0775497
-5.02136e-08
-0.00779903
0.0775497
-5.08328e-08
-0.007799
0.0775497
-4.99526e-08
-0.00779897
0.0775497
-4.4652e-08
-0.00779894
-3.23031e-08
-0.00779889
0.0809966
2.15922e-08
-0.00649165
0.0809965
1.62967e-08
-0.00649164
0.0809965
6.13043e-09
-0.00649162
0.0809965
-3.9377e-09
-0.00649159
0.0809965
-9.37411e-09
-0.00649157
0.0809965
-1.3618e-08
-0.00649154
0.0809965
-1.49985e-08
-0.00649152
0.0809965
-1.58722e-08
-0.00649149
0.0809965
-1.32366e-08
-0.00649145
-5.29923e-09
-0.0064914
0.0843362
6.18843e-08
-0.00510835
0.0843362
5.64685e-08
-0.00510834
0.0843362
4.66089e-08
-0.00510831
0.0843362
3.52609e-08
-0.00510829
0.0843362
2.92098e-08
-0.00510826
0.0843362
2.41551e-08
-0.00510824
0.0843362
2.17823e-08
-0.00510821
0.0843362
1.93883e-08
-0.00510818
0.0843362
1.95385e-08
-0.00510814
2.48965e-08
-0.00510809
0.0875475
9.93359e-08
-0.00369415
0.0875475
9.42877e-08
-0.00369413
0.0875475
8.37224e-08
-0.00369411
0.0875475
7.19987e-08
-0.00369409
0.0875475
6.48276e-08
-0.00369406
0.0875475
5.92296e-08
-0.00369404
0.0875475
5.5513e-08
-0.003694
0.0875475
5.2367e-08
-0.00369398
0.0875475
4.98993e-08
-0.00369393
5.0693e-08
-0.00369389
0.090619
1.28585e-07
-0.00230436
0.090619
1.23844e-07
-0.00230435
0.090619
1.1273e-07
-0.00230432
0.0906189
1.00281e-07
-0.0023043
0.0906189
9.20665e-08
-0.00230427
0.0906189
8.58865e-08
-0.00230425
0.0906189
8.0966e-08
-0.00230421
0.0906189
7.73148e-08
-0.00230419
0.0906189
7.22151e-08
-0.00230414
6.95371e-08
-0.0023041
0.0935537
1.46757e-07
-0.00100303
0.0935537
1.42286e-07
-0.00100302
0.0935536
1.30562e-07
-0.001003
0.0935536
1.17175e-07
-0.00100298
0.0935536
1.0783e-07
-0.00100295
0.0935536
1.01115e-07
-0.00100292
0.0935536
9.52322e-08
-0.00100289
0.0935536
9.13773e-08
-0.00100287
0.0935536
8.38289e-08
-0.00100282
7.87289e-08
-0.00100278
0.0963739
1.4879e-07
0.000140637
0.0963739
1.44438e-07
0.000140647
0.0963738
1.31893e-07
0.00014067
0.0963738
1.17525e-07
0.000140691
0.0963738
1.07129e-07
0.000140722
0.0963738
1.00165e-07
0.000140742
0.0963738
9.37846e-08
0.000140776
0.0963738
9.02935e-08
0.000140798
0.0963738
8.05152e-08
0.000140843
7.27461e-08
0.000140886
0.0991255
1.33366e-07
0.0010584
0.0991255
1.292e-07
0.00105841
0.0991255
1.15412e-07
0.00105843
0.0991255
1.00685e-07
0.00105845
0.0991254
8.94543e-08
0.00105848
0.0991254
8.27796e-08
0.0010585
0.0991254
7.66674e-08
0.00105853
0.0991254
7.45427e-08
0.00105855
0.0991254
6.28273e-08
0.00105859
4.92278e-08
0.00105863
0.10188
1.1429e-07
0.00169195
0.10188
1.11068e-07
0.00169196
0.10188
9.44732e-08
0.00169198
0.10188
8.17696e-08
0.001692
0.10188
6.92557e-08
0.00169203
0.10188
6.39234e-08
0.00169205
0.10188
5.80525e-08
0.00169208
0.10188
5.99683e-08
0.0016921
0.10188
4.69216e-08
0.00169214
1.75281e-08
0.00169218
0.104735
1.01751e-07
0.00200477
0.104735
9.6627e-08
0.00200477
0.104735
8.25501e-08
0.00200479
0.104735
6.5198e-08
0.00200481
0.104735
5.98275e-08
0.00200483
0.104735
5.00392e-08
0.00200486
0.104735
4.61342e-08
0.00200488
0.104735
4.12448e-08
0.00200491
0.104735
3.62062e-08
0.00200494
7.44566e-09
0.00200498
0.107804
9.80579e-08
0.00199561
0.107804
9.33909e-08
0.00199562
0.107804
8.13234e-08
0.00199563
0.107804
6.72373e-08
0.00199565
0.107804
6.52007e-08
0.00199567
0.107804
6.189e-08
0.00199569
0.107804
6.25493e-08
0.00199572
0.107804
6.70729e-08
0.00199574
0.107804
6.20187e-08
0.00199578
5.42478e-08
0.00199582
0.111206
1.04166e-07
0.00171083
0.111206
9.5793e-08
0.00171083
0.111206
8.95899e-08
0.00171084
0.111206
8.17578e-08
0.00171086
0.111206
8.09796e-08
0.00171088
0.111206
9.09134e-08
0.0017109
0.111206
9.84052e-08
0.00171093
0.111206
9.69661e-08
0.00171094
0.111206
8.22242e-08
0.00171095
8.55937e-08
0.00171098
0.115035
1.16525e-07
0.00124952
0.115035
1.17313e-07
0.00124952
0.115035
1.10688e-07
0.00124953
0.115035
1.19206e-07
0.00124954
0.115035
1.14825e-07
0.00124955
0.115035
1.30202e-07
0.00124955
0.115035
1.36244e-07
0.00124956
0.115035
1.32352e-07
0.00124956
0.115035
1.12547e-07
0.00124957
9.87929e-08
0.00124958
0.119332
1.33844e-07
0.000752445
0.119332
1.42141e-07
0.000752448
0.119332
1.41738e-07
0.000752445
0.119332
1.60455e-07
0.000752443
0.119332
1.5752e-07
0.000752434
0.119332
1.63092e-07
0.000752424
0.119332
1.5205e-07
0.000752413
0.119332
1.36709e-07
0.000752411
0.119332
1.35245e-07
0.0007524
1.15138e-07
0.000752393
0.124053
1.41296e-07
0.00036477
0.124053
1.4391e-07
0.000364765
0.124053
1.65803e-07
0.000364756
0.124053
1.77866e-07
0.00036473
0.124053
1.82311e-07
0.000364713
0.124053
1.80288e-07
0.000364679
0.124053
1.66817e-07
0.000364673
0.124053
1.61442e-07
0.000364647
0.124053
1.49468e-07
0.000364634
1.46092e-07
0.0003646
0.129077
1.22024e-07
0.000174142
0.129077
1.27613e-07
0.000174134
0.129077
1.42118e-07
0.000174108
0.129077
1.58327e-07
0.000174084
0.129077
1.62219e-07
0.000174041
0.129077
1.59662e-07
0.000174022
0.129077
1.55433e-07
0.000173973
0.129077
1.49833e-07
0.000173964
0.129077
1.50245e-07
0.000173907
1.37532e-07
0.000173867
0.134265
9.07635e-08
0.000159955
0.134265
9.64084e-08
0.00015994
0.134265
1.11295e-07
0.000159909
0.134265
1.25277e-07
0.000159873
0.134265
1.32426e-07
0.00015983
0.134265
1.3295e-07
0.000159794
0.134265
1.33688e-07
0.000159748
0.134265
1.30745e-07
0.000159714
0.134265
1.34571e-07
0.000159658
1.29614e-07
0.000159601
0.13955
7.63385e-08
0.000215857
0.13955
8.12655e-08
0.000215838
0.13955
9.41298e-08
0.000215802
0.13955
1.06049e-07
0.00021576
0.13955
1.12922e-07
0.000215716
0.13955
1.16383e-07
0.000215671
0.13955
1.17843e-07
0.000215627
0.13955
1.18217e-07
0.000215581
0.13955
1.21493e-07
0.000215522
1.27334e-07
0.000215436
0.144973
7.74094e-08
0.000247889
0.144973
8.17132e-08
0.000247867