/*--------------------------------*- C++ -*----------------------------------*\
| =========                 |                                                 |
| \\      /  F ield         | foam-extend: Open Source CFD                    |
|  \\    /   O peration     | Version:     3.2                                |
|   \\  /    A nd           | Web:         http://www.foam-extend.org         |
|    \\/     M anipulation  | For copyright notice see file Copyright         |
\*---------------------------------------------------------------------------*/
FoamFile
{
    version     2.0;
    format      ascii;
    class       regIOobject;
    location    "1200000/uniform";
    object      profilingInfo;
}
// * * * * * * * * * * * * * * * * * * * * * * * * * * * * * * * * * * * * * //

profilingInfo
(

    {
        id              16;
        parentId        14;
        description     "Foam::Time::writeObject - outputTime";
        calls           120;
        totalTime       2.48922;
        childTime       0;
        onStack         1;
    }

    {
        id              14;
        parentId        1;
        description     "Foam::Time::writeObject";
        calls           1200000;
        totalTime       3.27169;
        childTime       2.48922;
        onStack         1;
    }

    {
        id              1;
        description     "application::main";
        calls           1;
        totalTime       12505.6;
        childTime       8175.25;
        onStack         1;
    }

    {
        id              3;
        parentId        2;
        description     "functionObjectList::read";
        calls           1;
        totalTime       2e-06;
        childTime       0;
        onStack         0;
    }

    {
        id              17;
        parentId        1;
        description     "functionObjectList::read";
        calls           1;
        totalTime       5e-06;
        childTime       0;
        onStack         0;
    }

    {
        id              15;
        parentId        1;
        description     "functionObjects_.execute()";
        calls           1199999;
        totalTime       0.78342;
        childTime       0;
        onStack         0;
    }

    {
        id              2;
        parentId        1;
        description     "functionObjects_.start()";
        calls           1;
        totalTime       1.1e-05;
        childTime       2e-06;
        onStack         0;
    }

    {
        id              4;
        parentId        1;
        description     "fvMatrix::solve_U";
        calls           1200000;
        totalTime       1568.98;
        childTime       1440.91;
        onStack         0;
    }

    {
        id              10;
        parentId        1;
        description     "fvMatrix::solve_epsilon";
        calls           1200000;
        totalTime       518.216;
        childTime       468.347;
        onStack         0;
    }

    {
        id              12;
        parentId        1;
        description     "fvMatrix::solve_k";
        calls           1200000;
        totalTime       503.164;
        childTime       471.495;
        onStack         0;
    }

    {
        id              8;
        parentId        1;
        description     "fvMatrix::solve_p";
        calls           1200000;
        totalTime       5580.84;
        childTime       5542.1;
        onStack         0;
    }

    {
        id              5;
        parentId        4;
        description     "lduMatrix::solver_Ux";
        calls           1200000;
        totalTime       483.431;
        childTime       0;
        onStack         0;
    }

    {
        id              6;
        parentId        4;
        description     "lduMatrix::solver_Uy";
        calls           1200000;
        totalTime       477.995;
        childTime       0;
        onStack         0;
    }

    {
        id              7;
        parentId        4;
        description     "lduMatrix::solver_Uz";
        calls           1200000;
        totalTime       479.48;
        childTime       0;
        onStack         0;
    }

    {
        id              11;
        parentId        10;
        description     "lduMatrix::solver_epsilon";
        calls           1200000;
        totalTime       468.347;
        childTime       0;
        onStack         0;
    }

    {
        id              13;
        parentId        12;
        description     "lduMatrix::solver_k";
        calls           1200000;
        totalTime       471.495;
        childTime       0;
        onStack         0;
    }

    {
        id              9;
        parentId        8;
        description     "lduMatrix::solver_p";
        calls           1200000;
        totalTime       5542.1;
        childTime       0;
        onStack         0;
    }
);


// ************************************************************************* //
