/*--------------------------------*- C++ -*----------------------------------*\
| =========                 |                                                 |
| \\      /  F ield         | foam-extend: Open Source CFD                    |
|  \\    /   O peration     | Version:     3.2                                |
|   \\  /    A nd           | Web:         http://www.foam-extend.org         |
|    \\/     M anipulation  | For copyright notice see file Copyright         |
\*---------------------------------------------------------------------------*/
FoamFile
{
    version     2.0;
    format      ascii;
    class       volVectorField;
    location    "1200000";
    object      U;
}
// * * * * * * * * * * * * * * * * * * * * * * * * * * * * * * * * * * * * * //

dimensions      [0 1 -1 0 0 0 0];

internalField   nonuniform List<vector> 
5000
(
(5.17666 2.59073 -8.96941e-08)
(5.17667 2.59073 3.64014e-07)
(5.17666 2.59073 7.80056e-07)
(5.17666 2.59074 9.73294e-07)
(5.17665 2.59074 1.08995e-06)
(5.17664 2.59074 1.00437e-06)
(5.17663 2.59074 1.12524e-06)
(5.17663 2.59075 8.84061e-07)
(5.17662 2.59075 1.15981e-06)
(5.17662 2.59076 5.75806e-07)
(6.87219 3.31726 -5.85955e-07)
(6.87219 3.31726 5.55007e-07)
(6.87218 3.31726 1.70802e-06)
(6.87218 3.31726 2.22648e-06)
(6.87217 3.31726 2.57906e-06)
(6.87217 3.31727 2.57896e-06)
(6.87216 3.31727 2.90554e-06)
(6.87216 3.31728 2.54274e-06)
(6.87215 3.31728 3.12175e-06)
(6.87215 3.31729 1.6635e-06)
(7.89996 3.69458 -9.84317e-07)
(7.89997 3.69458 5.75881e-07)
(7.89996 3.69458 2.48018e-06)
(7.89996 3.69458 3.32082e-06)
(7.89996 3.69459 3.96153e-06)
(7.89995 3.69459 4.05327e-06)
(7.89995 3.69459 4.58993e-06)
(7.89994 3.6946 4.12687e-06)
(7.89994 3.6946 4.96033e-06)
(7.89994 3.69461 2.78402e-06)
(8.69175 3.94005 -1.78184e-06)
(8.69176 3.94005 3.66044e-07)
(8.69176 3.94006 2.90907e-06)
(8.69176 3.94006 3.8859e-06)
(8.69175 3.94006 4.77024e-06)
(8.69175 3.94007 5.02309e-06)
(8.69174 3.94007 5.81084e-06)
(8.69174 3.94008 5.32558e-06)
(8.69174 3.94008 6.35055e-06)
(8.69174 3.94009 3.64845e-06)
(9.36343 4.11126 -2.39835e-06)
(9.36344 4.11127 -2.57124e-07)
(9.36344 4.11127 2.96895e-06)
(9.36344 4.11128 4.25808e-06)
(9.36344 4.11128 5.50727e-06)
(9.36343 4.11128 5.86094e-06)
(9.36343 4.11129 6.80508e-06)
(9.36343 4.11129 6.26419e-06)
(9.36342 4.1113 7.43912e-06)
(9.36343 4.11131 4.33461e-06)
(9.96522 4.23191 -2.95066e-06)
(9.96523 4.23192 -6.64735e-07)
(9.96523 4.23192 2.34605e-06)
(9.96523 4.23192 3.86184e-06)
(9.96523 4.23193 5.95161e-06)
(9.96523 4.23193 6.37444e-06)
(9.96522 4.23194 7.42141e-06)
(9.96522 4.23194 6.84753e-06)
(9.96522 4.23195 8.14453e-06)
(9.96522 4.23196 4.7579e-06)
(10.5224 4.3132 -3.78719e-06)
(10.5224 4.31321 -1.48426e-06)
(10.5224 4.31321 1.9377e-06)
(10.5225 4.31322 3.73231e-06)
(10.5224 4.31322 5.81564e-06)
(10.5225 4.31323 6.42398e-06)
(10.5224 4.31323 7.73194e-06)
(10.5224 4.31324 7.13773e-06)
(10.5224 4.31324 8.53452e-06)
(10.5224 4.31325 4.94814e-06)
(11.0491 4.36082 -4.75873e-06)
(11.0491 4.36082 -2.35956e-06)
(11.0491 4.36083 1.147e-06)
(11.0491 4.36083 3.01546e-06)
(11.0491 4.36084 5.50492e-06)
(11.0491 4.36084 6.23177e-06)
(11.0491 4.36085 7.70165e-06)
(11.0491 4.36085 7.0851e-06)
(11.0491 4.36086 8.56318e-06)
(11.0491 4.36087 4.85189e-06)
(11.5533 4.37766 -5.97822e-06)
(11.5533 4.37766 -3.55704e-06)
(11.5533 4.37767 1.17043e-07)
(11.5533 4.37767 2.20068e-06)
(11.5533 4.37768 4.88149e-06)
(11.5533 4.37768 5.68095e-06)
(11.5533 4.37769 7.35647e-06)
(11.5533 4.3777 6.72413e-06)
(11.5533 4.3777 8.26835e-06)
(11.5533 4.37772 4.48229e-06)
(12.0396 4.36511 -7.41332e-06)
(12.0396 4.36512 -4.95146e-06)
(12.0396 4.36512 -1.18031e-06)
(12.0396 4.36513 9.82323e-07)
(12.0396 4.36513 3.90077e-06)
(12.0396 4.36514 4.79897e-06)
(12.0396 4.36515 6.67107e-06)
(12.0396 4.36515 6.01779e-06)
(12.0396 4.36516 7.62961e-06)
(12.0396 4.36518 3.80666e-06)
(12.5104 4.32372 -9.1348e-06)
(12.5104 4.32372 -6.65745e-06)
(12.5104 4.32373 -2.79229e-06)
(12.5104 4.32373 -5.03123e-07)
(12.5104 4.32374 2.59201e-06)
(12.5104 4.32375 3.55316e-06)
(12.5104 4.32375 5.6137e-06)
(12.5104 4.32376 4.95121e-06)
(12.5104 4.32377 6.6449e-06)
(12.5104 4.32378 2.81208e-06)
(12.9666 4.25354 -1.11439e-05)
(12.9666 4.25354 -8.64915e-06)
(12.9666 4.25355 -4.71109e-06)
(12.9666 4.25356 -2.36377e-06)
(12.9666 4.25356 8.86391e-07)
(12.9666 4.25357 1.91503e-06)
(12.9666 4.25358 4.15104e-06)
(12.9666 4.25359 3.48599e-06)
(12.9666 4.2536 5.27793e-06)
(12.9666 4.25361 1.45953e-06)
(13.4078 4.15444 -1.34914e-05)
(13.4078 4.15444 -1.09897e-05)
(13.4078 4.15445 -7.00081e-06)
(13.4078 4.15446 -4.58905e-06)
(13.4078 4.15447 -1.20964e-06)
(13.4078 4.15447 -1.34318e-07)
(13.4078 4.15448 2.25641e-06)
(13.4078 4.15449 1.59564e-06)
(13.4078 4.1545 3.50163e-06)
(13.4078 4.15452 -2.80752e-07)
(13.8328 4.02626 -1.61971e-05)
(13.8328 4.02626 -1.36942e-05)
(13.8328 4.02627 -9.67317e-06)
(13.8328 4.02628 -7.22947e-06)
(13.8328 4.02629 -3.755e-06)
(13.8328 4.0263 -2.63997e-06)
(13.8328 4.0263 -1.10322e-07)
(13.8328 4.02631 -7.62253e-07)
(13.8328 4.02632 1.26698e-06)
(13.8328 4.02634 -2.45841e-06)
(14.2394 3.86899 -1.9303e-05)
(14.2394 3.86899 -1.68071e-05)
(14.2394 3.869 -1.27798e-05)
(14.2394 3.86901 -1.03125e-05)
(14.2394 3.86902 -6.76733e-06)
(14.2395 3.86903 -5.62545e-06)
(14.2395 3.86904 -2.97742e-06)
(14.2395 3.86905 -3.61862e-06)
(14.2395 3.86906 -1.46313e-06)
(14.2395 3.86908 -5.11064e-06)
(14.6251 3.68291 -2.28408e-05)
(14.6251 3.68291 -2.03607e-05)
(14.6251 3.68292 -1.63495e-05)
(14.6252 3.68293 -1.38777e-05)
(14.6252 3.68294 -1.02965e-05)
(14.6252 3.68295 -9.13792e-06)
(14.6252 3.68296 -6.39009e-06)
(14.6252 3.68297 -7.01931e-06)
(14.6252 3.68298 -4.74056e-06)
(14.6252 3.683 -8.28854e-06)
(14.9866 3.46873 -2.68438e-05)
(14.9866 3.46873 -2.43889e-05)
(14.9866 3.46874 -2.042e-05)
(14.9866 3.46875 -1.79566e-05)
(14.9867 3.46877 -1.43695e-05)
(14.9867 3.46878 -1.32019e-05)
(14.9867 3.46879 -1.03774e-05)
(14.9867 3.4688 -1.09941e-05)
(14.9867 3.46881 -8.59954e-06)
(14.9867 3.46883 -1.20271e-05)
(15.3203 3.22775 -3.13511e-05)
(15.3203 3.22775 -2.8932e-05)
(15.3203 3.22776 -2.50288e-05)
(15.3203 3.22777 -2.25893e-05)
(15.3203 3.22779 -1.9029e-05)
(15.3203 3.2278 -1.78619e-05)
(15.3203 3.22781 -1.49853e-05)
(15.3203 3.22782 -1.55891e-05)
(15.3203 3.22783 -1.30932e-05)
(15.3203 3.22786 -1.63761e-05)
(15.6221 2.96196 -3.63825e-05)
(15.6221 2.96196 -3.4011e-05)
(15.6221 2.96197 -3.01977e-05)
(15.6221 2.96198 -2.77955e-05)
(15.6221 2.96199 -2.42932e-05)
(15.6221 2.962 -2.31323e-05)
(15.6221 2.96202 -2.0233e-05)
(15.6221 2.96203 -2.0819e-05)
(15.6221 2.96204 -1.82407e-05)
(15.6221 2.96207 -2.13559e-05)
(15.888 2.67418 -4.19788e-05)
(15.888 2.67419 -3.96669e-05)
(15.888 2.6742 -3.59648e-05)
(15.888 2.67421 -3.36128e-05)
(15.888 2.67422 -3.01988e-05)
(15.888 2.67423 -2.90509e-05)
(15.888 2.67425 -2.61593e-05)
(15.888 2.67426 -2.67225e-05)
(15.888 2.67427 -2.40835e-05)
(15.888 2.6743 -2.7007e-05)
(16.1139 2.36823 -4.8136e-05)
(16.1139 2.36823 -4.58953e-05)
(16.1139 2.36824 -4.23227e-05)
(16.1139 2.36825 -4.00325e-05)
(16.1139 2.36827 -3.67336e-05)
(16.1139 2.36828 -3.56029e-05)
(16.1139 2.36829 -3.27471e-05)
(16.114 2.36831 -3.32803e-05)
(16.114 2.36832 -3.06128e-05)
(16.114 2.36835 -3.33186e-05)
(16.296 2.04893 -5.48856e-05)
(16.296 2.04894 -5.27284e-05)
(16.296 2.04895 -4.93e-05)
(16.2961 2.04896 -4.7081e-05)
(16.2961 2.04897 -4.39216e-05)
(16.2961 2.04899 -4.28117e-05)
(16.2961 2.049 -4.00201e-05)
(16.2961 2.04901 -4.05149e-05)
(16.2961 2.04903 -3.7854e-05)
(16.2961 2.04905 -4.03118e-05)
(16.4311 1.72227 -6.21901e-05)
(16.4312 1.72228 -6.01285e-05)
(16.4312 1.72229 -5.68539e-05)
(16.4312 1.7223 -5.47119e-05)
(16.4312 1.72232 -5.17115e-05)
(16.4312 1.72233 -5.06229e-05)
(16.4312 1.72234 -4.79198e-05)
(16.4312 1.72236 -4.83643e-05)
(16.4312 1.72237 -4.57473e-05)
(16.4312 1.7224 -4.79271e-05)
(16.5169 1.39535 -7.00009e-05)
(16.5169 1.39535 -6.8044e-05)
(16.5169 1.39536 -6.49264e-05)
(16.5169 1.39538 -6.28653e-05)
(16.5169 1.39539 -6.0039e-05)
(16.5169 1.3954 -5.89738e-05)
(16.5169 1.39542 -5.638e-05)
(16.5169 1.39543 -5.67642e-05)
(16.5169 1.39545 -5.42244e-05)
(16.5169 1.39547 -5.60983e-05)
(16.5521 1.07631 -7.81608e-05)
(16.5521 1.07631 -7.63136e-05)
(16.5521 1.07632 -7.33453e-05)
(16.5521 1.07633 -7.13604e-05)
(16.5521 1.07635 -6.8714e-05)
(16.5521 1.07636 -6.76682e-05)
(16.5521 1.07638 -6.51947e-05)
(16.5522 1.07639 -6.55084e-05)
(16.5522 1.0764 -6.30706e-05)
(16.5522 1.07643 -6.46211e-05)
(16.5374 0.774166 -8.63768e-05)
(16.5374 0.774169 -8.46395e-05)
(16.5374 0.774182 -8.18111e-05)
(16.5375 0.774193 -7.99003e-05)
(16.5375 0.774208 -7.74395e-05)
(16.5375 0.774219 -7.64152e-05)
(16.5375 0.774235 -7.40685e-05)
(16.5375 0.774246 -7.43078e-05)
(16.5375 0.774261 -7.19854e-05)
(16.5375 0.774287 -7.32064e-05)
(16.4756 0.498469 -9.40306e-05)
(16.4756 0.498473 -9.2389e-05)
(16.4756 0.498485 -8.96726e-05)
(16.4756 0.498495 -8.78203e-05)
(16.4756 0.49851 -8.55408e-05)
(16.4757 0.498521 -8.45335e-05)
(16.4757 0.498537 -8.23107e-05)
(16.4757 0.498547 -8.24779e-05)
(16.4757 0.498562 -8.02666e-05)
(16.4757 0.498587 -8.1188e-05)
(16.3719 0.258754 -0.000100619)
(16.3719 0.258757 -9.90552e-05)
(16.3719 0.258769 -9.64325e-05)
(16.3719 0.258779 -9.46368e-05)
(16.372 0.258793 -9.25454e-05)
(16.372 0.258803 -9.15603e-05)
(16.372 0.258819 -8.94585e-05)
(16.372 0.258829 -8.95648e-05)
(16.372 0.258843 -8.74407e-05)
(16.372 0.258867 -8.81134e-05)
(16.2344 0.063789 -0.00010677)
(16.2344 0.0637915 -0.000105221)
(16.2344 0.0638034 -0.000102624)
(16.2345 0.063813 -0.000100866)
(16.2345 0.0638271 -9.89566e-05)
(16.2345 0.0638366 -9.79914e-05)
(16.2345 0.0638518 -9.60072e-05)
(16.2345 0.063861 -9.60663e-05)
(16.2345 0.0638753 -9.39866e-05)
(16.2345 0.0638982 -9.45231e-05)
(16.0742 -0.079452 -0.000112335)
(16.0742 -0.0794497 -0.000110776)
(16.0742 -0.079438 -0.0001082)
(16.0742 -0.0794287 -0.000106497)
(16.0742 -0.0794149 -0.000104807)
(16.0742 -0.0794059 -0.000103875)
(16.0742 -0.079391 -0.000102026)
(16.0743 -0.0793824 -0.000102063)
(16.0743 -0.0793685 -9.99854e-05)
(16.0743 -0.0793466 -0.000100499)
(15.905 -0.167036 -0.000116477)
(15.905 -0.167034 -0.000114962)
(15.905 -0.167022 -0.000112519)
(15.905 -0.167013 -0.000110939)
(15.905 -0.167 -0.000109595)
(15.905 -0.166991 -0.00010874)
(15.905 -0.166977 -0.00010711)
(15.9051 -0.166969 -0.000107177)
(15.9051 -0.166955 -0.000105105)
(15.9051 -0.166934 -0.000105666)
(15.7426 -0.199448 -0.000120859)
(15.7426 -0.199446 -0.000119415)
(15.7426 -0.199435 -0.000117173)
(15.7426 -0.199426 -0.000115774)
(15.7426 -0.199413 -0.000114857)
(15.7426 -0.199405 -0.000114091)
(15.7426 -0.199391 -0.000112727)
(15.7426 -0.199384 -0.000112821)
(15.7426 -0.199371 -0.000110755)
(15.7427 -0.199352 -0.000111413)
(15.6028 -0.182823 -0.000125476)
(15.6028 -0.182822 -0.00012412)
(15.6028 -0.182811 -0.000122136)
(15.6029 -0.182804 -0.000120976)
(15.6029 -0.182791 -0.000120561)
(15.6029 -0.182785 -0.000119899)
(15.6029 -0.182771 -0.000118867)
(15.6029 -0.182765 -0.000118969)
(15.6029 -0.182753 -0.000116951)
(15.6029 -0.182735 -0.000117728)
(15.4993 -0.129513 -0.000130561)
(15.4993 -0.129512 -0.000129345)
(15.4993 -0.129503 -0.00012779)
(15.4994 -0.129496 -0.000126942)
(15.4994 -0.129485 -0.000127077)
(15.4994 -0.129479 -0.00012651)
(15.4994 -0.129467 -0.000125812)
(15.4994 -0.129462 -0.000125912)
(15.4994 -0.129451 -0.000124176)
(15.4994 -0.129435 -0.000125029)
(15.44 -0.0573232 -0.000137512)
(15.44 -0.0573232 -0.000136576)
(15.44 -0.057315 -0.000135632)
(15.4401 -0.0573099 -0.000135156)
(15.4401 -0.0573009 -0.000135817)
(15.4401 -0.0572969 -0.00013537)
(15.4401 -0.057287 -0.000134985)
(15.4401 -0.0572833 -0.000135056)
(15.4401 -0.0572742 -0.000133988)
(15.4402 -0.0572615 -0.000134709)
(15.4242 0.0132698 -0.000140443)
(15.4242 0.0132693 -0.000140016)
(15.4242 0.0132752 -0.000140248)
(15.4242 0.0132784 -0.000140159)
(15.4243 0.0132847 -0.000141262)
(15.4243 0.0132871 -0.000140963)
(15.4243 0.013294 -0.000141117)
(15.4243 0.0132964 -0.000141053)
(15.4243 0.0133027 -0.000140922)
(15.4243 0.0133113 -0.000141305)
(15.441 0.0642227 -0.000135785)
(15.441 0.0642225 -0.000136082)
(15.4411 0.0642253 -0.000137779)
(15.4411 0.0642266 -0.000138143)
(15.4411 0.0642297 -0.000139628)
(15.4411 0.0642307 -0.000139556)
(15.4411 0.0642341 -0.000140557)
(15.4411 0.0642352 -0.000140253)
(15.4411 0.0642383 -0.000141153)
(15.4412 0.0642423 -0.000140914)
(15.4722 0.086186 -0.000118028)
(15.4722 0.086186 -0.000119106)
(15.4723 0.0861857 -0.000121995)
(15.4723 0.0861856 -0.000122875)
(15.4723 0.0861853 -0.000124797)
(15.4723 0.0861853 -0.000125025)
(15.4723 0.0861851 -0.000127028)
(15.4723 0.0861852 -0.000126401)
(15.4723 0.086185 -0.000128336)
(15.4724 0.0861848 -0.000127339)
(15.4992 0.082862 -9.5357e-05)
(15.4992 0.0828623 -9.71655e-05)
(15.4992 0.0828592 -0.000101294)
(15.4992 0.0828577 -0.000102715)
(15.4992 0.0828545 -0.000105037)
(15.4992 0.0828535 -0.000105552)
(15.4993 0.08285 -0.000108359)
(15.4993 0.0828491 -0.000107573)
(15.4993 0.082846 -0.000110426)
(15.4993 0.082842 -0.000108643)
(15.5129 0.0687624 -7.54236e-05)
(15.5129 0.0687625 -7.78555e-05)
(15.5129 0.068757 -8.30206e-05)
(15.5129 0.0687538 -8.49541e-05)
(15.5129 0.0687477 -8.76442e-05)
(15.513 0.0687453 -8.83889e-05)
(15.513 0.0687387 -9.15098e-05)
(15.513 0.0687366 -9.06517e-05)
(15.513 0.0687305 -9.45255e-05)
(15.513 0.0687225 -9.20749e-05)
(15.5181 0.0565168 -5.99808e-05)
(15.5181 0.0565162 -6.28073e-05)
(15.5181 0.0565089 -6.83278e-05)
(15.5181 0.0565035 -7.07473e-05)
(15.5182 0.0564949 -7.38371e-05)
(15.5182 0.0564903 -7.47622e-05)
(15.5182 0.056481 -7.80436e-05)
(15.5182 0.0564767 -7.72645e-05)
(15.5182 0.056468 -8.14266e-05)
(15.5182 0.0564558 -7.85729e-05)
(15.5229 0.0480802 -5.01181e-05)
(15.5229 0.0480782 -5.31413e-05)
(15.5229 0.048069 -5.8537e-05)
(15.5229 0.048061 -6.12441e-05)
(15.5229 0.0480499 -6.48216e-05)
(15.5229 0.0480422 -6.58e-05)
(15.5229 0.0480303 -6.9486e-05)
(15.5229 0.0480229 -6.85699e-05)
(15.5229 0.0480117 -7.24622e-05)
(15.5229 0.0479942 -6.94949e-05)
(15.5309 0.0410876 -4.35882e-05)
(15.5309 0.0410834 -4.6674e-05)
(15.5309 0.0410716 -5.16428e-05)
(15.5309 0.04106 -5.43887e-05)
(15.5309 0.0410454 -5.83827e-05)
(15.5309 0.0410335 -5.93374e-05)
(15.5309 0.0410182 -6.32909e-05)
(15.5309 0.0410063 -6.22114e-05)
(15.5309 0.0409918 -6.59389e-05)
(15.5309 0.0409666 -6.32322e-05)
(15.5423 0.0341612 -4.29023e-05)
(15.5423 0.0341541 -4.58378e-05)
(15.5423 0.0341389 -5.0363e-05)
(15.5423 0.0341224 -5.28482e-05)
(15.5423 0.0341034 -5.71646e-05)
(15.5423 0.0340859 -5.79147e-05)
(15.5423 0.0340661 -6.20556e-05)
(15.5423 0.0340487 -6.09949e-05)
(15.5423 0.0340297 -6.46545e-05)
(15.5423 0.0339935 -6.2409e-05)
(15.5547 0.0267946 -4.29401e-05)
(15.5547 0.0267847 -4.55736e-05)
(15.5547 0.0267658 -4.97819e-05)
(15.5547 0.026744 -5.18793e-05)
(15.5547 0.0267202 -5.62584e-05)
(15.5547 0.026697 -5.68264e-05)
(15.5547 0.0266726 -6.08868e-05)
(15.5547 0.0266493 -6.007e-05)
(15.5547 0.0266252 -6.36725e-05)
(15.5547 0.0265772 -6.19135e-05)
(15.5655 0.0189205 -4.65208e-05)
(15.5655 0.0189083 -4.87325e-05)
(15.5655 0.0188861 -5.26093e-05)
(15.5655 0.0188599 -5.42589e-05)
(15.5655 0.0188321 -5.83896e-05)
(15.5655 0.0188039 -5.88371e-05)
(15.5655 0.0187755 -6.25593e-05)
(15.5655 0.0187472 -6.20467e-05)
(15.5655 0.0187187 -6.54016e-05)
(15.5655 0.0186606 -6.40549e-05)
(15.5733 0.0114565 -4.43493e-05)
(15.5733 0.0114429 -4.60529e-05)
(15.5733 0.0114184 -4.93693e-05)
(15.5733 0.0113891 -5.05918e-05)
(15.5733 0.0113584 -5.41432e-05)
(15.5733 0.0113269 -5.45222e-05)
(15.5733 0.0112955 -5.76585e-05)
(15.5733 0.0112638 -5.74049e-05)
(15.5733 0.0112321 -6.02518e-05)
(15.5733 0.0111671 -5.93498e-05)
(15.5778 0.00566723 -3.72059e-05)
(15.5778 0.0056528 -3.83629e-05)
(15.5778 0.00562693 -4.08641e-05)
(15.5778 0.00559597 -4.16795e-05)
(15.5778 0.00556351 -4.43816e-05)
(15.5778 0.00553024 -4.46795e-05)
(15.5778 0.00549711 -4.70334e-05)
(15.5778 0.0054636 -4.69506e-05)
(15.5778 0.00543007 -4.90538e-05)
(15.5778 0.00536108 -4.85649e-05)
(15.58 0.00208872 -2.13687e-05)
(15.58 0.00207394 -2.20193e-05)
(15.58 0.00204742 -2.3554e-05)
(15.58 0.00201572 -2.40137e-05)
(15.58 0.00198243 -2.56945e-05)
(15.58 0.00194836 -2.58894e-05)
(15.58 0.00191438 -2.73426e-05)
(15.5799 0.00188007 -2.73418e-05)
(15.5799 0.00184568 -2.86075e-05)
(15.5799 0.00177487 -2.84197e-05)
(15.5808 0.000446129 -8.42804e-06)
(15.5808 0.000431236 -8.63499e-06)
(15.5808 0.000404462 -9.15073e-06)
(15.5808 0.000372514 -9.2969e-06)
(15.5808 0.0003389 -9.86725e-06)
(15.5808 0.000304557 -9.93452e-06)
(15.5808 0.000270245 -1.04256e-05)
(15.5808 0.000235659 -1.04341e-05)
(15.5808 0.000200941 -1.0854e-05)
(15.5808 0.000129488 -1.08119e-05)
(5.17664 2.59073 1.51114e-07)
(5.17665 2.59073 5.37919e-07)
(5.17664 2.59073 9.43712e-07)
(5.17663 2.59074 1.17874e-06)
(5.17662 2.59074 1.37905e-06)
(5.17662 2.59075 1.27701e-06)
(5.17661 2.59075 1.41827e-06)
(5.17661 2.59076 1.15887e-06)
(5.1766 2.59076 1.4268e-06)
(5.17659 2.59077 8.89165e-07)
(6.87216 3.31726 1.02746e-07)
(6.87217 3.31726 1.07525e-06)
(6.87216 3.31726 2.11019e-06)
(6.87216 3.31726 2.76231e-06)
(6.87215 3.31727 3.28855e-06)
(6.87215 3.31727 3.24074e-06)
(6.87214 3.31727 3.61186e-06)
(6.87213 3.31728 3.22797e-06)
(6.87212 3.31729 3.81104e-06)
(6.87212 3.3173 2.44174e-06)
(7.89994 3.69457 9.71621e-08)
(7.89994 3.69458 1.46389e-06)
(7.89994 3.69458 3.14751e-06)
(7.89994 3.69458 4.12619e-06)
(7.89993 3.69459 5.00386e-06)
(7.89993 3.69459 5.05003e-06)
(7.89992 3.69459 5.66657e-06)
(7.89992 3.6946 5.1878e-06)
(7.89991 3.69461 6.04996e-06)
(7.89991 3.69462 4.00429e-06)
(8.69173 3.94005 -3.80853e-07)
(8.69173 3.94005 1.48726e-06)
(8.69173 3.94005 3.69577e-06)
(8.69173 3.94006 4.93535e-06)
(8.69173 3.94006 6.06066e-06)
(8.69172 3.94007 6.24067e-06)
(8.69172 3.94007 7.10298e-06)
(8.69172 3.94008 6.61253e-06)
(8.69171 3.94008 7.68216e-06)
(8.69171 3.94009 5.11447e-06)
(9.36341 4.11126 -8.33936e-07)
(9.36341 4.11127 1.11747e-06)
(9.36341 4.11127 3.9159e-06)
(9.36341 4.11127 5.3136e-06)
(9.36341 4.11128 6.833e-06)
(9.36341 4.11128 7.20824e-06)
(9.3634 4.11129 8.25568e-06)
(9.3634 4.11129 7.69981e-06)
(9.36339 4.1113 8.91659e-06)
(9.36339 4.11131 5.93199e-06)
(9.9652 4.23191 -1.38996e-06)
(9.9652 4.23191 6.94545e-07)
(9.9652 4.23192 3.43008e-06)
(9.9652 4.23192 5.08957e-06)
(9.9652 4.23192 7.07985e-06)
(9.9652 4.23193 7.70106e-06)
(9.96519 4.23194 8.90965e-06)
(9.96519 4.23194 8.31271e-06)
(9.96519 4.23195 9.64921e-06)
(9.96519 4.23196 6.34144e-06)
(10.5224 4.3132 -2.3122e-06)
(10.5224 4.3132 -1.67246e-07)
(10.5224 4.31321 2.90658e-06)
(10.5224 4.31321 4.76206e-06)
(10.5224 4.31322 6.86795e-06)
(10.5224 4.31322 7.69537e-06)
(10.5224 4.31323 9.12909e-06)
(10.5224 4.31323 8.53555e-06)
(10.5224 4.31324 9.9795e-06)
(10.5224 4.31325 6.41413e-06)
(11.0491 4.36081 -3.51513e-06)
(11.0491 4.36082 -1.26629e-06)
(11.0491 4.36082 1.96684e-06)
(11.0491 4.36083 3.91358e-06)
(11.0491 4.36083 6.23858e-06)
(11.0491 4.36084 7.23664e-06)
(11.0491 4.36084 8.85713e-06)
(11.0491 4.36085 8.30228e-06)
(11.0491 4.36086 9.85078e-06)
(11.0491 4.36087 6.09555e-06)
(11.5532 4.37765 -5.07013e-06)
(11.5532 4.37766 -2.75643e-06)
(11.5532 4.37766 6.54935e-07)
(11.5532 4.37767 2.75561e-06)
(11.5532 4.37767 5.2681e-06)
(11.5532 4.37768 6.33538e-06)
(11.5532 4.37768 8.12845e-06)
(11.5532 4.37769 7.61841e-06)
(11.5532 4.3777 9.27107e-06)
(11.5532 4.37771 5.39651e-06)
(12.0395 4.36511 -6.96617e-06)
(12.0395 4.36511 -4.58436e-06)
(12.0395 4.36511 -1.06629e-06)
(12.0395 4.36512 1.14294e-06)
(12.0395 4.36513 3.84473e-06)
(12.0395 4.36513 4.9676e-06)
(12.0395 4.36514 6.92664e-06)
(12.0395 4.36515 6.44232e-06)
(12.0395 4.36516 8.20161e-06)
(12.0395 4.36517 4.27753e-06)
(12.5104 4.32371 -9.25584e-06)
(12.5104 4.32371 -6.82896e-06)
(12.5104 4.32372 -3.21528e-06)
(12.5104 4.32372 -8.89512e-07)
(12.5104 4.32373 1.98978e-06)
(12.5104 4.32374 3.14403e-06)
(12.5104 4.32375 5.2573e-06)
(12.5104 4.32375 4.77834e-06)
(12.5104 4.32376 6.64298e-06)
(12.5104 4.32378 2.72335e-06)
(12.9665 4.25353 -1.19592e-05)
(12.9665 4.25353 -9.48843e-06)
(12.9665 4.25354 -5.80289e-06)
(12.9666 4.25355 -3.40311e-06)
(12.9665 4.25355 -3.73667e-07)
(12.9666 4.25356 8.11218e-07)
(12.9666 4.25357 3.0747e-06)
(12.9666 4.25358 2.59048e-06)
(12.9666 4.25359 4.56026e-06)
(12.9666 4.2536 6.93174e-07)
(13.4078 4.15443 -1.51171e-05)
(13.4078 4.15443 -1.2612e-05)
(13.4078 4.15444 -8.86912e-06)
(13.4078 4.15445 -6.41161e-06)
(13.4078 4.15445 -3.25133e-06)
(13.4078 4.15446 -2.0437e-06)
(13.4078 4.15447 3.55253e-07)
(13.4078 4.15448 -1.3636e-07)
(13.4078 4.15449 1.93539e-06)
(13.4078 4.15451 -1.84239e-06)
(13.8327 4.02625 -1.87611e-05)
(13.8327 4.02625 -1.62261e-05)
(13.8327 4.02626 -1.24431e-05)
(13.8327 4.02627 -9.95397e-06)
(13.8327 4.02627 -6.69359e-06)
(13.8327 4.02628 -5.47088e-06)
(13.8327 4.02629 -2.95244e-06)
(13.8327 4.0263 -3.44423e-06)
(13.8327 4.02631 -1.27152e-06)
(13.8327 4.02633 -4.93302e-06)
(14.2394 3.86898 -2.29241e-05)
(14.2394 3.86898 -2.03672e-05)
(14.2394 3.86899 -1.65623e-05)
(14.2394 3.86899 -1.40579e-05)
(14.2394 3.869 -1.07204e-05)
(14.2394 3.86901 -9.49163e-06)
(14.2394 3.86902 -6.87533e-06)
(14.2394 3.86903 -7.36025e-06)
(14.2394 3.86904 -5.08744e-06)
(14.2394 3.86906 -8.61241e-06)
(14.6251 3.68289 -2.7642e-05)
(14.6251 3.6829 -2.50702e-05)
(14.6251 3.68291 -2.12622e-05)
(14.6251 3.68291 -1.87591e-05)
(14.6251 3.68292 -1.53743e-05)
(14.6251 3.68293 -1.41494e-05)
(14.6251 3.68294 -1.14555e-05)
(14.6251 3.68295 -1.19295e-05)
(14.6251 3.68297 -9.55926e-06)
(14.6251 3.68299 -1.29279e-05)
(14.9866 3.46872 -3.29367e-05)
(14.9866 3.46872 -3.03593e-05)
(14.9866 3.46873 -2.65689e-05)
(14.9866 3.46874 -2.40795e-05)
(14.9866 3.46875 -2.06783e-05)
(14.9866 3.46876 -1.94603e-05)
(14.9866 3.46877 -1.67103e-05)
(14.9866 3.46878 -1.71736e-05)
(14.9866 3.46879 -1.47138e-05)
(14.9866 3.46882 -1.79093e-05)
(15.3202 3.22774 -3.88395e-05)
(15.3202 3.22774 -3.62661e-05)
(15.3202 3.22775 -3.25134e-05)
(15.3202 3.22776 -3.00487e-05)
(15.3202 3.22777 -2.6662e-05)
(15.3202 3.22778 -2.54564e-05)
(15.3202 3.22779 -2.26676e-05)
(15.3203 3.2278 -2.31247e-05)
(15.3203 3.22782 -2.05901e-05)
(15.3203 3.22784 -2.35971e-05)
(15.622 2.96194 -4.53545e-05)
(15.622 2.96194 -4.27974e-05)
(15.622 2.96195 -3.91028e-05)
(15.6221 2.96196 -3.66716e-05)
(15.6221 2.96198 -3.33281e-05)
(15.6221 2.96199 -3.2139e-05)
(15.6221 2.962 -2.93323e-05)
(15.6221 2.96201 -2.97815e-05)
(15.6221 2.96203 -2.71942e-05)
(15.6221 2.96205 -2.99988e-05)
(15.8879 2.67417 -5.2495e-05)
(15.8879 2.67417 -4.99668e-05)
(15.8879 2.67418 -4.63485e-05)
(15.8879 2.67419 -4.39587e-05)
(15.888 2.67421 -4.06873e-05)
(15.888 2.67422 -3.95157e-05)
(15.888 2.67423 -3.67169e-05)
(15.888 2.67424 -3.71521e-05)
(15.888 2.67426 -3.45231e-05)
(15.888 2.67428 -3.71162e-05)
(16.1138 2.36821 -6.02338e-05)
(16.1138 2.36821 -5.77459e-05)
(16.1139 2.36822 -5.42166e-05)
(16.1139 2.36824 -5.1878e-05)
(16.1139 2.36825 -4.87037e-05)
(16.1139 2.36826 -4.75517e-05)
(16.1139 2.36828 -4.47831e-05)
(16.1139 2.36829 -4.51976e-05)
(16.1139 2.3683 -4.25397e-05)
(16.1139 2.36833 -4.49122e-05)
(16.296 2.04892 -6.85344e-05)
(16.296 2.04892 -6.61021e-05)
(16.296 2.04893 -6.26764e-05)
(16.296 2.04894 -6.0396e-05)
(16.296 2.04896 -5.73405e-05)
(16.296 2.04897 -5.62074e-05)
(16.296 2.04898 -5.34906e-05)
(16.296 2.049 -5.38759e-05)
(16.296 2.04901 -5.12077e-05)
(16.296 2.04904 -5.33464e-05)
(16.4311 1.72226 -7.7344e-05)
(16.4311 1.72226 -7.49867e-05)
(16.4311 1.72227 -7.16786e-05)
(16.4311 1.72228 -6.94605e-05)
(16.4311 1.7223 -6.65398e-05)
(16.4311 1.72231 -6.54218e-05)
(16.4311 1.72233 -6.27736e-05)
(16.4311 1.72234 -6.31179e-05)
(16.4311 1.72235 -6.04602e-05)
(16.4311 1.72238 -6.2346e-05)
(16.5168 1.39533 -8.64827e-05)
(16.5168 1.39533 -8.42205e-05)
(16.5168 1.39535 -8.10408e-05)
(16.5168 1.39536 -7.88894e-05)
(16.5168 1.39537 -7.61181e-05)
(16.5168 1.39538 -7.50135e-05)
(16.5168 1.3954 -7.24503e-05)
(16.5168 1.39541 -7.27429e-05)
(16.5168 1.39543 -7.01198e-05)
(16.5169 1.39545 -7.17324e-05)
(16.552 1.07629 -9.57164e-05)
(16.552 1.07629 -9.35686e-05)
(16.552 1.07631 -9.05208e-05)
(16.552 1.07632 -8.84349e-05)
(16.552 1.07633 -8.58179e-05)
(16.552 1.07634 -8.47207e-05)
(16.552 1.07636 -8.22477e-05)
(16.5521 1.07637 -8.24759e-05)
(16.5521 1.07639 -7.99056e-05)
(16.5521 1.07641 -8.12215e-05)
(16.5373 0.774153 -0.000104427)
(16.5373 0.774157 -0.000102411)
(16.5373 0.774169 -9.94988e-05)
(16.5374 0.77418 -9.74799e-05)
(16.5374 0.774195 -9.50249e-05)
(16.5374 0.774206 -9.39353e-05)
(16.5374 0.774223 -9.15579e-05)
(16.5374 0.774234 -9.1715e-05)
(16.5374 0.77425 -8.92138e-05)
(16.5374 0.774276 -9.0217e-05)
(16.4755 0.498461 -0.000111618)
(16.4755 0.498465 -0.000109742)
(16.4755 0.498477 -0.000106954)
(16.4755 0.498488 -0.000104996)
(16.4755 0.498502 -0.000102699)
(16.4755 0.498513 -0.000101613)
(16.4755 0.498529 -9.93249e-05)
(16.4756 0.49854 -9.94075e-05)
(16.4756 0.498556 -9.69783e-05)
(16.4756 0.498581 -9.76713e-05)
(16.3718 0.25875 -0.000115897)
(16.3718 0.258753 -0.000114161)
(16.3718 0.258765 -0.000111494)
(16.3718 0.258775 -0.000109599)
(16.3718 0.25879 -0.000107474)
(16.3718 0.2588 -0.000106401)
(16.3718 0.258816 -0.000104206)
(16.3719 0.258827 -0.000104226)
(16.3719 0.258842 -0.000101864)
(16.3719 0.258866 -0.000102283)
(16.2343 0.0637885 -0.00011862)
(16.2343 0.0637911 -0.000117017)
(16.2343 0.0638032 -0.000114437)
(16.2343 0.063813 -0.000112591)
(16.2344 0.0638273 -0.000110626)
(16.2344 0.0638371 -0.000109562)
(16.2344 0.0638527 -0.000107443)
(16.2344 0.0638622 -0.000107411)
(16.2344 0.0638769 -0.000105093)
(16.2344 0.0639004 -0.000105287)
(16.0741 -0.0794477 -0.000120289)
(16.0741 -0.0794454 -0.000118786)
(16.0741 -0.0794336 -0.00011629)
(16.0742 -0.0794243 -0.000114511)
(16.0742 -0.0794104 -0.000112756)
(16.0742 -0.0794012 -0.000111716)
(16.0742 -0.0793861 -0.000109711)
(16.0742 -0.0793772 -0.000109648)
(16.0742 -0.0793631 -0.000107351)
(16.0742 -0.0793407 -0.000107445)
(15.905 -0.167028 -0.000120797)
(15.905 -0.167026 -0.000119338)
(15.905 -0.167015 -0.00011696)
(15.905 -0.167006 -0.000115298)
(15.905 -0.166992 -0.000113891)
(15.905 -0.166984 -0.000112923)
(15.905 -0.166969 -0.00011116)
(15.905 -0.166961 -0.000111108)
(15.9051 -0.166948 -0.000108854)
(15.9051 -0.166927 -0.00010905)
(15.7426 -0.19944 -0.000122439)
(15.7426 -0.199438 -0.000120989)
(15.7426 -0.199427 -0.000118766)
(15.7426 -0.199419 -0.000117276)
(15.7426 -0.199406 -0.00011631)
(15.7426 -0.199398 -0.000115425)
(15.7426 -0.199384 -0.000113976)
(15.7426 -0.199377 -0.000113934)
(15.7426 -0.199364 -0.000111727)
(15.7427 -0.199344 -0.000112132)
(15.6028 -0.182816 -0.000126119)
(15.6028 -0.182815 -0.000124665)
(15.6028 -0.182804 -0.000122622)
(15.6029 -0.182796 -0.000121364)
(15.6029 -0.182784 -0.000120915)
(15.6029 -0.182777 -0.000120152)
(15.6029 -0.182764 -0.000119088)
(15.6029 -0.182758 -0.000119062)
(15.6029 -0.182746 -0.000116975)
(15.6029 -0.182727 -0.000117652)
(15.4993 -0.129508 -0.000131818)
(15.4993 -0.129508 -0.00013045)
(15.4993 -0.129498 -0.000128784)
(15.4994 -0.129491 -0.000127833)
(15.4994 -0.12948 -0.000127941)
(15.4994 -0.129475 -0.000127277)
(15.4994 -0.129463 -0.000126597)
(15.4994 -0.129458 -0.000126574)
(15.4994 -0.129447 -0.000124802)
(15.4994 -0.129431 -0.00012565)
(15.44 -0.0573158 -0.000141914)
(15.44 -0.0573158 -0.000140829)
(15.44 -0.0573076 -0.000139788)
(15.44 -0.0573026 -0.000139212)
(15.44 -0.0572935 -0.00013985)
(15.4401 -0.0572894 -0.000139313)
(15.4401 -0.0572793 -0.000138934)
(15.4401 -0.0572756 -0.000138913)
(15.4401 -0.0572664 -0.00013786)
(15.4401 -0.0572535 -0.000138626)
(15.4241 0.0132914 -0.000150652)
(15.4241 0.0132909 -0.000150132)
(15.4241 0.0132969 -0.000150279)
(15.4241 0.0133001 -0.000150103)
(15.4241 0.0133065 -0.000151183)
(15.4242 0.013309 -0.000150804)
(15.4242 0.013316 -0.000150938)
(15.4242 0.0133185 -0.000150805)
(15.4242 0.013325 -0.000150693)
(15.4242 0.0133337 -0.000151086)
(15.4408 0.0642694 -0.00014556)
(15.4409 0.0642692 -0.000145821)
(15.4409 0.064272 -0.000147468)
(15.4409 0.0642734 -0.000147762)
(15.4409 0.0642765 -0.000149226)
(15.4409 0.0642776 -0.000149081)
(15.4409 0.0642811 -0.000150063)
(15.4409 0.0642823 -0.000149697)
(15.4409 0.0642855 -0.000150567)
(15.441 0.0642897 -0.000150289)
(15.472 0.0862528 -0.000118505)
(15.472 0.0862528 -0.00011956)
(15.472 0.0862525 -0.000122419)
(15.4721 0.0862524 -0.000123242)
(15.4721 0.0862522 -0.000125131)
(15.4721 0.0862522 -0.000125304)
(15.4721 0.0862521 -0.000127272)
(15.4721 0.0862522 -0.000126594)
(15.4721 0.0862521 -0.000128498)
(15.4721 0.086252 -0.000127467)
(15.499 0.0829287 -8.8874e-05)
(15.499 0.082929 -9.06715e-05)
(15.499 0.0829259 -9.479e-05)
(15.499 0.0829245 -9.61695e-05)
(15.499 0.0829212 -9.84623e-05)
(15.499 0.0829203 -9.89387e-05)
(15.4991 0.0829169 -0.000101708)
(15.4991 0.0829161 -0.000100888)
(15.4991 0.082913 -0.000103709)
(15.4991 0.082909 -0.000101884)
(15.5127 0.0688188 -6.6036e-05)
(15.5127 0.068819 -6.84642e-05)
(15.5127 0.0688135 -7.36205e-05)
(15.5128 0.0688103 -7.55289e-05)
(15.5128 0.0688042 -7.81907e-05)
(15.5128 0.0688018 -7.89098e-05)
(15.5128 0.0687953 -8.19937e-05)
(15.5128 0.0687933 -8.11094e-05)
(15.5128 0.0687872 -8.49564e-05)
(15.5128 0.0687792 -8.24709e-05)
(15.518 0.0565607 -5.02121e-05)
(15.518 0.05656 -5.30354e-05)
(15.518 0.0565527 -5.85383e-05)
(15.518 0.0565474 -6.09406e-05)
(15.518 0.0565388 -6.40064e-05)
(15.518 0.0565342 -6.49133e-05)
(15.518 0.056525 -6.8161e-05)
(15.518 0.0565207 -6.73605e-05)
(15.518 0.0565121 -7.1494e-05)
(15.5181 0.0564999 -6.86013e-05)
(15.5227 0.048113 -4.15266e-05)
(15.5227 0.048111 -4.45498e-05)
(15.5227 0.0481018 -4.99285e-05)
(15.5228 0.0480938 -5.26258e-05)
(15.5228 0.0480827 -5.61834e-05)
(15.5228 0.0480751 -5.7148e-05)
(15.5228 0.0480632 -6.08052e-05)
(15.5228 0.0480557 -5.98703e-05)
(15.5228 0.0480446 -6.37363e-05)
(15.5228 0.0480272 -6.07295e-05)
(15.5308 0.0411094 -4.04547e-05)
(15.5308 0.0411052 -4.35431e-05)
(15.5308 0.0410934 -4.84963e-05)
(15.5308 0.0410818 -5.12372e-05)
(15.5308 0.0410673 -5.52157e-05)
(15.5308 0.0410553 -5.61606e-05)
(15.5308 0.04104 -6.00925e-05)
(15.5308 0.0410282 -5.89969e-05)