/*--------------------------------*- C++ -*----------------------------------*\
| =========                 |                                                 |
| \\      /  F ield         | foam-extend: Open Source CFD                    |
|  \\    /   O peration     | Version:     3.2                                |
|   \\  /    A nd           | Web:         http://www.foam-extend.org         |
|    \\/     M anipulation  | For copyright notice see file Copyright         |
\*---------------------------------------------------------------------------*/
FoamFile
{
    version     2.0;
    format      ascii;
    class       volScalarField;
    location    "1.2e+06";
    object      Uz;
}
// * * * * * * * * * * * * * * * * * * * * * * * * * * * * * * * * * * * * * //

dimensions      [0 1 -1 0 0 0 0];

internalField   nonuniform List<scalar> 
5000
(
-8.96941e-08
3.64014e-07
7.80056e-07
9.73294e-07
1.08995e-06
1.00437e-06
1.12524e-06
8.84061e-07
1.15981e-06
5.75806e-07
-5.85955e-07
5.55007e-07
1.70802e-06
2.22648e-06
2.57906e-06
2.57896e-06
2.90554e-06
2.54274e-06
3.12175e-06
1.6635e-06
-9.84317e-07
5.75881e-07
2.48018e-06
3.32082e-06
3.96153e-06
4.05327e-06
4.58993e-06
4.12687e-06
4.96033e-06
2.78402e-06
-1.78184e-06
3.66044e-07
2.90907e-06
3.8859e-06
4.77024e-06
5.02309e-06
5.81084e-06
5.32558e-06
6.35055e-06
3.64845e-06
-2.39835e-06
-2.57124e-07
2.96895e-06
4.25808e-06
5.50727e-06
5.86094e-06
6.80508e-06
6.26419e-06
7.43912e-06
4.33461e-06
-2.95066e-06
-6.64735e-07
2.34605e-06
3.86184e-06
5.95161e-06
6.37444e-06
7.42141e-06
6.84753e-06
8.14453e-06
4.7579e-06
-3.78719e-06
-1.48426e-06
1.9377e-06
3.73231e-06
5.81564e-06
6.42398e-06
7.73194e-06
7.13773e-06
8.53452e-06
4.94814e-06
-4.75873e-06
-2.35956e-06
1.147e-06
3.01546e-06
5.50492e-06
6.23177e-06
7.70165e-06
7.0851e-06
8.56318e-06
4.85189e-06
-5.97822e-06
-3.55704e-06
1.17043e-07
2.20068e-06
4.88149e-06
5.68095e-06
7.35647e-06
6.72413e-06
8.26835e-06
4.48229e-06
-7.41332e-06
-4.95146e-06
-1.18031e-06
9.82323e-07
3.90077e-06
4.79897e-06
6.67107e-06
6.01779e-06
7.62961e-06
3.80666e-06
-9.1348e-06
-6.65745e-06
-2.79229e-06
-5.03123e-07
2.59201e-06
3.55316e-06
5.6137e-06
4.95121e-06
6.6449e-06
2.81208e-06
-1.11439e-05
-8.64915e-06
-4.71109e-06
-2.36377e-06
8.86391e-07
1.91503e-06
4.15104e-06
3.48599e-06
5.27793e-06
1.45953e-06
-1.34914e-05
-1.09897e-05
-7.00081e-06
-4.58905e-06
-1.20964e-06
-1.34318e-07
2.25641e-06
1.59564e-06
3.50163e-06
-2.80752e-07
-1.61971e-05
-1.36942e-05
-9.67317e-06
-7.22947e-06
-3.755e-06
-2.63997e-06
-1.10322e-07
-7.62253e-07
1.26698e-06
-2.45841e-06
-1.9303e-05
-1.68071e-05
-1.27798e-05
-1.03125e-05
-6.76733e-06
-5.62545e-06
-2.97742e-06
-3.61862e-06
-1.46313e-06
-5.11064e-06
-2.28408e-05
-2.03607e-05
-1.63495e-05
-1.38777e-05
-1.02965e-05
-9.13792e-06
-6.39009e-06
-7.01931e-06
-4.74056e-06
-8.28854e-06
-2.68438e-05
-2.43889e-05
-2.042e-05
-1.79566e-05
-1.43695e-05
-1.32019e-05
-1.03774e-05
-1.09941e-05
-8.59954e-06
-1.20271e-05
-3.13511e-05
-2.8932e-05
-2.50288e-05
-2.25893e-05
-1.9029e-05
-1.78619e-05
-1.49853e-05
-1.55891e-05
-1.30932e-05
-1.63761e-05
-3.63825e-05
-3.4011e-05
-3.01977e-05
-2.77955e-05
-2.42932e-05
-2.31323e-05
-2.0233e-05
-2.0819e-05
-1.82407e-05
-2.13559e-05
-4.19788e-05
-3.96669e-05
-3.59648e-05
-3.36128e-05
-3.01988e-05
-2.90509e-05
-2.61593e-05
-2.67225e-05
-2.40835e-05
-2.7007e-05
-4.8136e-05
-4.58953e-05
-4.23227e-05
-4.00325e-05
-3.67336e-05
-3.56029e-05
-3.27471e-05
-3.32803e-05
-3.06128e-05
-3.33186e-05
-5.48856e-05
-5.27284e-05
-4.93e-05
-4.7081e-05
-4.39216e-05
-4.28117e-05
-4.00201e-05
-4.05149e-05
-3.7854e-05
-4.03118e-05
-6.21901e-05
-6.01285e-05
-5.68539e-05
-5.47119e-05
-5.17115e-05
-5.06229e-05
-4.79198e-05
-4.83643e-05
-4.57473e-05
-4.79271e-05
-7.00009e-05
-6.8044e-05
-6.49264e-05
-6.28653e-05
-6.0039e-05
-5.89738e-05
-5.638e-05
-5.67642e-05
-5.42244e-05
-5.60983e-05
-7.81608e-05
-7.63136e-05
-7.33453e-05
-7.13604e-05
-6.8714e-05
-6.76682e-05
-6.51947e-05
-6.55084e-05
-6.30706e-05
-6.46211e-05
-8.63768e-05
-8.46395e-05
-8.18111e-05
-7.99003e-05
-7.74395e-05
-7.64152e-05
-7.40685e-05
-7.43078e-05
-7.19854e-05
-7.32064e-05
-9.40306e-05
-9.2389e-05
-8.96726e-05
-8.78203e-05
-8.55408e-05
-8.45335e-05
-8.23107e-05
-8.24779e-05
-8.02666e-05
-8.1188e-05
-0.000100619
-9.90552e-05
-9.64325e-05
-9.46368e-05
-9.25454e-05
-9.15603e-05
-8.94585e-05
-8.95648e-05
-8.74407e-05
-8.81134e-05
-0.00010677
-0.000105221
-0.000102624
-0.000100866
-9.89566e-05
-9.79914e-05
-9.60072e-05
-9.60663e-05
-9.39866e-05
-9.45231e-05
-0.000112335
-0.000110776
-0.0001082
-0.000106497
-0.000104807
-0.000103875
-0.000102026
-0.000102063
-9.99854e-05
-0.000100499
-0.000116477
-0.000114962
-0.000112519
-0.000110939
-0.000109595
-0.00010874
-0.00010711
-0.000107177
-0.000105105
-0.000105666
-0.000120859
-0.000119415
-0.000117173
-0.000115774
-0.000114857
-0.000114091
-0.000112727
-0.000112821
-0.000110755
-0.000111413
-0.000125476
-0.00012412
-0.000122136
-0.000120976
-0.000120561
-0.000119899
-0.000118867
-0.000118969
-0.000116951
-0.000117728
-0.000130561
-0.000129345
-0.00012779
-0.000126942
-0.000127077
-0.00012651
-0.000125812
-0.000125912
-0.000124176
-0.000125029
-0.000137512
-0.000136576
-0.000135632
-0.000135156
-0.000135817
-0.00013537
-0.000134985
-0.000135056
-0.000133988
-0.000134709
-0.000140443
-0.000140016
-0.000140248
-0.000140159
-0.000141262
-0.000140963
-0.000141117
-0.000141053
-0.000140922
-0.000141305
-0.000135785
-0.000136082
-0.000137779
-0.000138143
-0.000139628
-0.000139556
-0.000140557
-0.000140253
-0.000141153
-0.000140914
-0.000118028
-0.000119106
-0.000121995
-0.000122875
-0.000124797
-0.000125025
-0.000127028
-0.000126401
-0.000128336
-0.000127339
-9.5357e-05
-9.71655e-05
-0.000101294
-0.000102715
-0.000105037
-0.000105552
-0.000108359
-0.000107573
-0.000110426
-0.000108643
-7.54236e-05
-7.78555e-05
-8.30206e-05
-8.49541e-05
-8.76442e-05
-8.83889e-05
-9.15098e-05
-9.06517e-05
-9.45255e-05
-9.20749e-05
-5.99808e-05
-6.28073e-05
-6.83278e-05
-7.07473e-05
-7.38371e-05
-7.47622e-05
-7.80436e-05
-7.72645e-05
-8.14266e-05
-7.85729e-05
-5.01181e-05
-5.31413e-05
-5.8537e-05
-6.12441e-05
-6.48216e-05
-6.58e-05
-6.9486e-05
-6.85699e-05
-7.24622e-05
-6.94949e-05
-4.35882e-05
-4.6674e-05
-5.16428e-05
-5.43887e-05
-5.83827e-05
-5.93374e-05
-6.32909e-05
-6.22114e-05
-6.59389e-05
-6.32322e-05
-4.29023e-05
-4.58378e-05
-5.0363e-05
-5.28482e-05
-5.71646e-05
-5.79147e-05
-6.20556e-05
-6.09949e-05
-6.46545e-05
-6.2409e-05
-4.29401e-05
-4.55736e-05
-4.97819e-05
-5.18793e-05
-5.62584e-05
-5.68264e-05
-6.08868e-05
-6.007e-05
-6.36725e-05
-6.19135e-05
-4.65208e-05
-4.87325e-05
-5.26093e-05
-5.42589e-05
-5.83896e-05
-5.88371e-05
-6.25593e-05
-6.20467e-05
-6.54016e-05
-6.40549e-05
-4.43493e-05
-4.60529e-05
-4.93693e-05
-5.05918e-05
-5.41432e-05
-5.45222e-05
-5.76585e-05
-5.74049e-05
-6.02518e-05
-5.93498e-05
-3.72059e-05
-3.83629e-05
-4.08641e-05
-4.16795e-05
-4.43816e-05
-4.46795e-05
-4.70334e-05
-4.69506e-05
-4.90538e-05
-4.85649e-05
-2.13687e-05
-2.20193e-05
-2.3554e-05
-2.40137e-05
-2.56945e-05
-2.58894e-05
-2.73426e-05
-2.73418e-05
-2.86075e-05
-2.84197e-05
-8.42804e-06
-8.63499e-06
-9.15073e-06
-9.2969e-06
-9.86725e-06
-9.93452e-06
-1.04256e-05
-1.04341e-05
-1.0854e-05
-1.08119e-05
1.51114e-07
5.37919e-07
9.43712e-07
1.17874e-06
1.37905e-06
1.27701e-06
1.41827e-06
1.15887e-06
1.4268e-06
8.89165e-07
1.02746e-07
1.07525e-06
2.11019e-06
2.76231e-06
3.28855e-06
3.24074e-06
3.61186e-06
3.22797e-06
3.81104e-06
2.44174e-06
9.71621e-08
1.46389e-06
3.14751e-06
4.12619e-06
5.00386e-06
5.05003e-06
5.66657e-06
5.1878e-06
6.04996e-06
4.00429e-06
-3.80853e-07
1.48726e-06
3.69577e-06
4.93535e-06
6.06066e-06
6.24067e-06
7.10298e-06
6.61253e-06
7.68216e-06
5.11447e-06
-8.33936e-07
1.11747e-06
3.9159e-06
5.3136e-06
6.833e-06
7.20824e-06
8.25568e-06
7.69981e-06
8.91659e-06
5.93199e-06
-1.38996e-06
6.94545e-07
3.43008e-06
5.08957e-06
7.07985e-06
7.70106e-06
8.90965e-06
8.31271e-06
9.64921e-06
6.34144e-06
-2.3122e-06
-1.67246e-07
2.90658e-06
4.76206e-06
6.86795e-06
7.69537e-06
9.12909e-06
8.53555e-06
9.9795e-06
6.41413e-06
-3.51513e-06
-1.26629e-06
1.96684e-06
3.91358e-06
6.23858e-06
7.23664e-06
8.85713e-06
8.30228e-06
9.85078e-06
6.09555e-06
-5.07013e-06
-2.75643e-06
6.54935e-07
2.75561e-06
5.2681e-06
6.33538e-06
8.12845e-06
7.61841e-06
9.27107e-06
5.39651e-06
-6.96617e-06
-4.58436e-06
-1.06629e-06
1.14294e-06
3.84473e-06
4.9676e-06
6.92664e-06
6.44232e-06
8.20161e-06
4.27753e-06
-9.25584e-06
-6.82896e-06
-3.21528e-06
-8.89512e-07
1.98978e-06
3.14403e-06
5.2573e-06
4.77834e-06
6.64298e-06
2.72335e-06
-1.19592e-05
-9.48843e-06
-5.80289e-06
-3.40311e-06
-3.73667e-07
8.11218e-07
3.0747e-06
2.59048e-06
4.56026e-06
6.93174e-07
-1.51171e-05
-1.2612e-05
-8.86912e-06
-6.41161e-06
-3.25133e-06
-2.0437e-06
3.55253e-07
-1.3636e-07
1.93539e-06
-1.84239e-06
-1.87611e-05
-1.62261e-05
-1.24431e-05
-9.95397e-06
-6.69359e-06
-5.47088e-06
-2.95244e-06
-3.44423e-06
-1.27152e-06
-4.93302e-06
-2.29241e-05
-2.03672e-05
-1.65623e-05
-1.40579e-05
-1.07204e-05
-9.49163e-06
-6.87533e-06
-7.36025e-06
-5.08744e-06
-8.61241e-06
-2.7642e-05
-2.50702e-05
-2.12622e-05
-1.87591e-05
-1.53743e-05
-1.41494e-05
-1.14555e-05
-1.19295e-05
-9.55926e-06
-1.29279e-05
-3.29367e-05
-3.03593e-05
-2.65689e-05
-2.40795e-05
-2.06783e-05
-1.94603e-05
-1.67103e-05
-1.71736e-05
-1.47138e-05
-1.79093e-05
-3.88395e-05
-3.62661e-05
-3.25134e-05
-3.00487e-05
-2.6662e-05
-2.54564e-05
-2.26676e-05
-2.31247e-05
-2.05901e-05
-2.35971e-05
-4.53545e-05
-4.27974e-05
-3.91028e-05
-3.66716e-05
-3.33281e-05
-3.2139e-05
-2.93323e-05
-2.97815e-05
-2.71942e-05
-2.99988e-05
-5.2495e-05
-4.99668e-05
-4.63485e-05
-4.39587e-05
-4.06873e-05
-3.95157e-05
-3.67169e-05
-3.71521e-05
-3.45231e-05
-3.71162e-05
-6.02338e-05
-5.77459e-05
-5.42166e-05
-5.1878e-05
-4.87037e-05
-4.75517e-05
-4.47831e-05
-4.51976e-05
-4.25397e-05
-4.49122e-05
-6.85344e-05
-6.61021e-05
-6.26764e-05
-6.0396e-05
-5.73405e-05
-5.62074e-05
-5.34906e-05
-5.38759e-05
-5.12077e-05
-5.33464e-05
-7.7344e-05
-7.49867e-05
-7.16786e-05
-6.94605e-05
-6.65398e-05
-6.54218e-05
-6.27736e-05
-6.31179e-05
-6.04602e-05
-6.2346e-05
-8.64827e-05
-8.42205e-05
-8.10408e-05
-7.88894e-05
-7.61181e-05
-7.50135e-05
-7.24503e-05
-7.27429e-05
-7.01198e-05
-7.17324e-05
-9.57164e-05
-9.35686e-05
-9.05208e-05
-8.84349e-05
-8.58179e-05
-8.47207e-05
-8.22477e-05
-8.24759e-05
-7.99056e-05
-8.12215e-05
-0.000104427
-0.000102411
-9.94988e-05
-9.74799e-05
-9.50249e-05
-9.39353e-05
-9.15579e-05
-9.1715e-05
-8.92138e-05
-9.0217e-05
-0.000111618
-0.000109742
-0.000106954
-0.000104996
-0.000102699
-0.000101613
-9.93249e-05
-9.94075e-05
-9.69783e-05
-9.76713e-05
-0.000115897
-0.000114161
-0.000111494
-0.000109599
-0.000107474
-0.000106401
-0.000104206
-0.000104226
-0.000101864
-0.000102283
-0.00011862
-0.000117017
-0.000114437
-0.000112591
-0.000110626
-0.000109562
-0.000107443
-0.000107411
-0.000105093
-0.000105287
-0.000120289
-0.000118786
-0.00011629
-0.000114511
-0.000112756
-0.000111716
-0.000109711
-0.000109648
-0.000107351
-0.000107445
-0.000120797
-0.000119338
-0.00011696
-0.000115298
-0.000113891
-0.000112923
-0.00011116
-0.000111108
-0.000108854
-0.00010905
-0.000122439
-0.000120989
-0.000118766
-0.000117276
-0.00011631
-0.000115425
-0.000113976
-0.000113934
-0.000111727
-0.000112132
-0.000126119
-0.000124665
-0.000122622
-0.000121364
-0.000120915
-0.000120152
-0.000119088
-0.000119062
-0.000116975
-0.000117652
-0.000131818
-0.00013045
-0.000128784
-0.000127833
-0.000127941
-0.000127277
-0.000126597
-0.000126574
-0.000124802
-0.00012565
-0.000141914
-0.000140829
-0.000139788
-0.000139212
-0.00013985
-0.000139313
-0.000138934
-0.000138913
-0.00013786
-0.000138626
-0.000150652
-0.000150132
-0.000150279
-0.000150103
-0.000151183
-0.000150804
-0.000150938
-0.000150805
-0.000150693
-0.000151086
-0.00014556
-0.000145821
-0.000147468
-0.000147762
-0.000149226
-0.000149081
-0.000150063
-0.000149697
-0.000150567
-0.000150289
-0.000118505
-0.00011956
-0.000122419
-0.000123242
-0.000125131
-0.000125304
-0.000127272
-0.000126594
-0.000128498
-0.000127467
-8.8874e-05
-9.06715e-05
-9.479e-05
-9.61695e-05
-9.84623e-05
-9.89387e-05
-0.000101708
-0.000100888
-0.000103709
-0.000101884
-6.6036e-05
-6.84642e-05
-7.36205e-05
-7.55289e-05
-7.81907e-05
-7.89098e-05
-8.19937e-05
-8.11094e-05
-8.49564e-05
-8.24709e-05
-5.02121e-05
-5.30354e-05
-5.85383e-05
-6.09406e-05
-6.40064e-05
-6.49133e-05
-6.8161e-05
-6.73605e-05
-7.1494e-05
-6.86013e-05
-4.15266e-05
-4.45498e-05
-4.99285e-05
-5.26258e-05
-5.61834e-05
-5.7148e-05
-6.08052e-05
-5.98703e-05
-6.37363e-05
-6.07295e-05
-4.04547e-05
-4.35431e-05
-4.84963e-05
-5.12372e-05
-5.52157e-05
-5.61606e-05
-6.00925e-05
-5.89969e-05
-6.27033e-05
-5.99578e-05
-4.84204e-05
-5.13596e-05
-5.58723e-05
-5.83567e-05
-6.266e-05
-6.34032e-05
-6.7527e-05
-6.64524e-05
-7.00955e-05
-6.78158e-05
-5.51965e-05
-5.78308e-05
-6.20253e-05
-6.41198e-05
-6.84834e-05
-6.90423e-05
-7.30849e-05
-7.22529e-05
-7.58372e-05
-7.40452e-05
-5.92867e-05
-6.14959e-05
-6.5357e-05
-6.70005e-05
-7.1113e-05
-7.1549e-05
-7.52512e-05
-7.47221e-05
-7.80557e-05
-7.6676e-05
-5.47823e-05
-5.64811e-05
-5.97811e-05
-6.09949e-05
-6.45263e-05
-6.48923e-05
-6.80073e-05
-6.77369e-05
-7.05606e-05
-6.96265e-05
-4.29559e-05
-4.4109e-05
-4.65981e-05
-4.74072e-05
-5.00944e-05
-5.03832e-05
-5.27213e-05
-5.26269e-05
-5.47126e-05
-5.42013e-05
-2.38608e-05
-2.45095e-05
-2.60378e-05
-2.64946e-05
-2.81675e-05
-2.83581e-05
-2.98028e-05
-2.97963e-05
-3.10524e-05
-3.0853e-05
-9.17626e-06
-9.38251e-06
-9.89598e-06
-1.00411e-05
-1.06086e-05
-1.06744e-05
-1.11625e-05
-1.1169e-05
-1.15855e-05
-1.15394e-05
1.48708e-07
4.74432e-07
8.40737e-07
9.17016e-07
1.16227e-06
1.01074e-06
1.12641e-06
9.17028e-07
1.10381e-06
5.90124e-07
1.06301e-07
9.89485e-07
1.90459e-06
2.18442e-06
2.8186e-06
2.68689e-06
3.01439e-06
2.71006e-06
3.10545e-06
1.7243e-06
2.05284e-08
1.29906e-06
2.77888e-06
3.28151e-06
4.27837e-06
4.18185e-06
4.73945e-06
4.36351e-06
4.96164e-06
2.86089e-06
-5.36705e-07
1.26507e-06
3.22405e-06
3.85981e-06
5.14627e-06
5.16386e-06
5.95541e-06
5.5514e-06
6.32295e-06
3.64892e-06
-1.09824e-06
7.99333e-07
3.2956e-06
4.24336e-06
5.75504e-06
5.84388e-06
6.84599e-06
6.36598e-06
7.27838e-06
4.1701e-06
-1.71081e-06
2.92878e-07
2.6021e-06
4.0877e-06
5.90539e-06
6.1039e-06
7.31984e-06
6.75288e-06
7.78593e-06
4.35176e-06
-2.68003e-06
-6.71357e-07
1.88725e-06
3.68629e-06
5.59829e-06
6.0273e-06
7.42503e-06
6.76009e-06
7.92108e-06
4.24291e-06
-3.94043e-06
-1.84362e-06
8.27767e-07
2.77854e-06
4.85635e-06
5.5785e-06
7.07112e-06
6.34297e-06
7.67561e-06
3.81916e-06
-5.59599e-06
-3.42698e-06
-5.41948e-07
1.52807e-06
3.7445e-06
4.67253e-06
6.28604e-06
5.53478e-06
7.05466e-06
3.07863e-06
-7.60674e-06
-5.33992e-06
-2.30572e-06
-1.57495e-07
2.21954e-06
3.28457e-06
5.02945e-06
4.29003e-06
5.99716e-06
1.96268e-06
-1.00153e-05
-7.67356e-06
-4.4983e-06
-2.24433e-06
2.96169e-07
1.43864e-06
3.33063e-06
2.616e-06
4.48498e-06
4.44696e-07
-1.28423e-05
-1.04276e-05
-7.13034e-06
-4.79395e-06
-2.09674e-06
-8.97872e-07
1.15661e-06
4.78649e-07
2.47144e-06
-1.53336e-06
-1.61222e-05
-1.36465e-05
-1.02397e-05
-7.82113e-06
-4.97454e-06
-3.73614e-06
-1.51541e-06
-2.16571e-06
-6.20137e-08
-3.97421e-06
-1.98919e-05
-1.73604e-05
-1.38531e-05
-1.13699e-05
-8.38862e-06
-7.11756e-06
-4.73966e-06
-5.37061e-06
-3.14926e-06
-6.9091e-06
-2.41754e-05
-2.15969e-05
-1.80014e-05
-1.54665e-05
-1.23606e-05
-1.10604e-05
-8.5433e-06
-9.13521e-06
-6.80509e-06
-1.04001e-05
-2.90102e-05
-2.6393e-05
-2.27215e-05
-2.01494e-05
-1.69349e-05
-1.56121e-05
-1.29714e-05
-1.35049e-05
-1.10686e-05
-1.44802e-05
-3.44091e-05
-3.17629e-05
-2.80326e-05
-2.54376e-05
-2.21341e-05
-2.07932e-05
-1.80451e-05
-1.85138e-05
-1.5972e-05
-1.91664e-05
-4.03988e-05
-3.77353e-05
-3.39651e-05
-3.13591e-05
-2.79923e-05
-2.66338e-05
-2.37993e-05
-2.41921e-05
-2.15455e-05
-2.45035e-05
-4.69734e-05
-4.43044e-05
-4.0516e-05
-3.79156e-05
-3.45121e-05
-3.31413e-05
-3.02317e-05
-3.05534e-05
-2.78063e-05
-3.04925e-05
-5.41325e-05
-5.14742e-05
-4.76921e-05
-4.51086e-05
-4.16991e-05
-4.03166e-05
-3.73492e-05
-3.76037e-05
-3.47801e-05
-3.71618e-05
-6.18319e-05
-5.92054e-05
-5.54589e-05
-5.29039e-05
-4.95212e-05
-4.8131e-05
-4.51326e-05
-4.53184e-05
-4.2429e-05
-4.44946e-05
-7.00091e-05
-6.74347e-05
-6.37489e-05
-6.12342e-05
-5.79107e-05
-5.65169e-05
-5.35124e-05
-5.36293e-05
-5.06902e-05
-5.24284e-05
-7.8586e-05
-7.60852e-05
-7.24847e-05
-7.00238e-05
-6.6792e-05
-6.54015e-05
-6.24201e-05
-6.24698e-05
-5.95045e-05
-6.09136e-05
-8.73916e-05
-8.49868e-05
-8.14961e-05
-7.91026e-05
-7.59944e-05
-7.46159e-05
-7.16877e-05
-7.16734e-05
-6.8713e-05
-6.97952e-05
-9.61102e-05
-9.38256e-05
-9.04667e-05
-8.81529e-05
-8.51966e-05
-8.38388e-05
-8.09914e-05
-8.09177e-05
-7.79968e-05
-7.87614e-05
-0.00010421
-0.000102068
-9.88604e-05
-9.66344e-05
-9.38554e-05
-9.25267e-05
-8.97845e-05
-8.96578e-05
-8.68094e-05
-8.72695e-05
-0.000110697
-0.000108712
-0.000105666
-0.000103533
-0.00010095
-9.96587e-05
-9.70381e-05
-9.68691e-05
-9.41172e-05
-9.43048e-05
-0.000113927
-0.000112105
-0.000109228
-0.000107192
-0.000104832
-0.000103589
-0.000101113
-0.00010092
-9.82786e-05
-9.82537e-05
-0.000114281
-0.000112624
-0.000109921
-0.000107986
-0.000105868
-0.000104684
-0.000102363
-0.00010217
-9.96424e-05
-9.94865e-05
-0.000113494
-0.000111963
-0.000109423
-0.000107594
-0.000105766
-0.000104648
-0.000102519
-0.000102345
-9.99143e-05
-9.97452e-05
-0.000112584
-0.000111104
-0.000108685
-0.000106983
-0.000105504
-0.000104468
-0.000102588
-0.000102442
-0.000100063
-0.00010003
-0.000114244
-0.000112774
-0.000110505
-0.000108978
-0.000107952
-0.000107013
-0.000105475
-0.000105357
-0.00010305
-0.000103276
-0.000119308
-0.00011786
-0.000115748
-0.000114432
-0.000113878
-0.000113036
-0.000111854
-0.000111732
-0.000109531
-0.000110039
-0.000127344
-0.000125988
-0.000124239
-0.000123225
-0.000123211
-0.000122463
-0.00012166
-0.000121532
-0.00011962
-0.000120308
-0.000136335
-0.000135245
-0.000134136
-0.000133512
-0.000134064
-0.000133457
-0.000132996
-0.000132883
-0.000131722
-0.000132377
-0.000143304
-0.000142781
-0.00014288
-0.000142669
-0.000143687
-0.00014325
-0.000143312
-0.000143103
-0.000142913
-0.000143224
-0.000133321
-0.00013358
-0.0001352
-0.000135476
-0.000136906
-0.000136725
-0.000137661
-0.000137252
-0.000138067
-0.000137737
-0.000109373
-0.000110427
-0.00011327
-0.000114078
-0.000115942
-0.000116084
-0.000118016
-0.000117299
-0.000119163
-0.000118089
-8.92255e-05
-9.10228e-05
-9.51291e-05
-9.64996e-05
-9.87748e-05
-9.92319e-05
-0.000101975
-0.000101131
-0.000103923
-0.00010206
-7.58564e-05
-7.82831e-05
-8.34322e-05
-8.53339e-05
-8.798e-05
-8.86841e-05
-9.17472e-05
-9.08421e-05
-9.46683e-05
-9.21451e-05
-6.44587e-05
-6.72802e-05
-7.27832e-05
-7.51843e-05
-7.82388e-05
-7.91362e-05
-8.23697e-05
-8.15536e-05
-8.56756e-05
-8.2752e-05
-5.88158e-05
-6.18371e-05
-6.72178e-05
-6.99173e-05
-7.34667e-05
-7.44241e-05
-7.80718e-05
-7.71235e-05
-8.09804e-05
-7.79459e-05
-6.05941e-05
-6.36801e-05
-6.86326e-05
-7.13758e-05
-7.5346e-05
-7.6285e-05
-8.02078e-05
-7.90987e-05
-8.27953e-05
-8.00231e-05
-7.08093e-05
-7.37438e-05
-7.82505e-05
-8.07314e-05
-8.50235e-05
-8.57579e-05
-8.98692e-05
-8.87801e-05
-9.24092e-05
-9.01e-05
-7.31182e-05
-7.57463e-05
-7.99333e-05
-8.20209e-05
-8.6374e-05
-8.69231e-05
-9.09539e-05
-9.01086e-05
-9.36784e-05
-9.18592e-05
-6.61141e-05
-6.83191e-05
-7.21772e-05
-7.38176e-05
-7.79269e-05
-7.83594e-05
-8.20574e-05
-8.15235e-05
-8.48491e-05
-8.34567e-05
-5.06404e-05
-5.23372e-05
-5.56372e-05
-5.68514e-05
-6.0384e-05
-6.07514e-05
-6.38668e-05
-6.35974e-05
-6.64184e-05
-6.54826e-05
-3.52635e-05
-3.64161e-05
-3.89057e-05
-3.97159e-05
-4.24042e-05
-4.26947e-05
-4.50336e-05
-4.49407e-05
-4.70257e-05
-4.65152e-05
-1.85273e-05
-1.91762e-05
-2.0705e-05
-2.11633e-05
-2.28371e-05
-2.30295e-05
-2.44751e-05
-2.44701e-05
-2.57269e-05
-2.55291e-05
-7.36065e-06
-7.56702e-06
-8.08062e-06
-8.22618e-06
-8.79383e-06
-8.86007e-06
-9.34824e-06
-9.3551e-06
-9.77166e-06
-9.72588e-06
1.68111e-07
4.47487e-07
9.10745e-07
9.02609e-07
1.11285e-06
1.07481e-06
1.09348e-06
9.8226e-07
1.15756e-06
5.83748e-07
2.01936e-07
9.41346e-07
2.01633e-06
2.14291e-06
2.76185e-06
2.85149e-06
2.93931e-06
2.8347e-06
3.19744e-06
1.63182e-06
9.54926e-08
1.25197e-06
2.95974e-06
3.17787e-06
4.17455e-06
4.40186e-06
4.61467e-06
4.52797e-06
5.06144e-06
2.64831e-06
-4.22216e-07
1.14095e-06
3.36144e-06
3.7479e-06
5.05142e-06
5.40251e-06
5.78143e-06
5.70294e-06
6.38317e-06
3.31494e-06
-1.11492e-06
7.29644e-07
3.49647e-06
3.9925e-06
5.59745e-06
6.019e-06
6.58244e-06
6.44229e-06
7.22938e-06
3.71799e-06
-1.87611e-06
2.06417e-07
2.7819e-06
3.71856e-06
5.76613e-06
6.17028e-06
6.93401e-06
6.68503e-06
7.53984e-06
3.79465e-06
-2.89396e-06
-8.52719e-07
1.82692e-06
3.44531e-06
5.48362e-06
5.89195e-06
6.91671e-06
6.49327e-06
7.3876e-06
3.56951e-06
-4.2643e-06
-2.15393e-06
5.55716e-07
2.60382e-06
4.63858e-06
5.19854e-06
6.52316e-06
5.90076e-06
6.83226e-06
3.03082e-06
-6.0118e-06
-3.86567e-06
-1.03617e-06
1.21903e-06
3.38561e-06
4.11615e-06
5.70338e-06
4.93921e-06
5.93667e-06
2.17877e-06
-8.18079e-06
-5.95259e-06
-2.99229e-06
-6.45101e-07
1.67025e-06
2.55843e-06
4.36784e-06
3.55155e-06
4.67426e-06
9.73634e-07
-1.07669e-05
-8.46428e-06
-5.38435e-06
-2.9513e-06
-4.72525e-07
5.31652e-07
2.51648e-06
1.72281e-06
3.03557e-06
-6.11485e-07
-1.38183e-05
-1.14401e-05
-8.23991e-06
-5.73668e-06
-3.10436e-06
-2.01177e-06
1.07244e-07
-6.00042e-07
9.662e-07
-2.64729e-06
-1.7339e-05
-1.48915e-05
-1.15896e-05
-9.02184e-06
-6.24008e-06
-5.07896e-06
-2.8249e-06
-3.44454e-06
-1.62007e-06
-5.16536e-06
-2.13867e-05
-1.88757e-05
-1.54754e-05
-1.28478e-05
-9.92608e-06
-8.71262e-06
-6.27674e-06
-6.85365e-06
-4.82319e-06
-8.21686e-06
-2.59625e-05
-2.33957e-05
-1.99078e-05
-1.7235e-05
-1.41907e-05
-1.29163e-05
-1.03295e-05
-1.08594e-05
-8.62111e-06
-1.1853e-05
-3.11171e-05
-2.85035e-05
-2.49322e-05
-2.22234e-05
-1.90764e-05
-1.77406e-05
-1.50367e-05
-1.55058e-05
-1.3042e-05
-1.61099e-05
-3.68427e-05
-3.41916e-05
-3.05513e-05
-2.78208e-05
-2.45827e-05
-2.3201e-05
-2.03747e-05
-2.07773e-05
-1.81235e-05
-2.09899e-05
-4.31724e-05
-4.04962e-05
-3.67998e-05
-3.40566e-05
-3.0746e-05
-2.93213e-05
-2.6406e-05
-2.67326e-05
-2.39131e-05
-2.6563e-05
-5.00755e-05
-4.73884e-05
-4.36529e-05
-4.09125e-05
-3.7548e-05
-3.60922e-05
-3.31065e-05
-3.33421e-05
-3.03943e-05
-3.28122e-05
-5.75578e-05
-5.48756e-05
-5.11199e-05
-4.83937e-05
-4.49948e-05
-4.35156e-05
-4.0469e-05
-4.06156e-05
-3.75824e-05
-3.9727e-05
-6.55455e-05
-6.28862e-05
-5.91358e-05
-5.64366e-05
-5.30362e-05
-5.15395e-05
-4.84534e-05
-4.8514e-05
-4.54201e-05
-4.72455e-05
-7.399e-05
-7.13742e-05
-6.76553e-05
-6.49954e-05
-6.16239e-05
-6.01139e-05
-5.7011e-05
-5.69844e-05
-5.38498e-05
-5.53284e-05
-8.27605e-05
-8.02114e-05
-7.65528e-05
-7.3944e-05
-7.06351e-05
-6.91183e-05
-6.6022e-05
-6.59124e-05
-6.27553e-05
-6.38728e-05
-9.16977e-05
-8.92401e-05
-8.56711e-05
-8.31273e-05
-7.99155e-05
-7.83999e-05
-7.53374e-05
-7.51496e-05
-7.19909e-05
-7.27483e-05
-0.00010046
-9.81204e-05
-9.467e-05
-9.22064e-05
-8.91259e-05
-8.76227e-05
-8.46214e-05
-8.43644e-05
-8.12323e-05
-8.16454e-05
-0.000108556
-0.000106361
-0.000103058
-0.000100687
-9.77707e-05
-9.62925e-05
-9.33807e-05
-9.30665e-05
-8.99935e-05
-9.00849e-05
-0.000114916
-0.000112886
-0.000109748
-0.000107482
-0.000104757
-0.000103318
-0.000100519
-0.000100163
-9.71799e-05
-9.69885e-05
-0.000117805
-0.00011595
-0.000112996
-0.000110842
-0.000108345
-0.00010696
-0.000104302
-0.000103929
-0.000101059
-0.000100654
-0.000116621
-0.000114945
-0.000112187
-0.000110154
-0.000107917
-0.000106601
-0.000104113
-0.00010375
-0.00010101
-0.000100491
-0.000113898
-0.000112369
-0.000109798
-0.000107888
-0.000105954
-0.000104716
-0.00010243
-0.000102101
-9.94777e-05
-9.89613e-05
-0.000111275
-0.000109806
-0.000107368
-0.000105596
-0.000104021
-0.000102878
-0.000100856
-0.000100571
-9.80316e-05
-9.76939e-05
-0.000111595
-0.000110106
-0.000107786
-0.000106185
-0.000105061
-0.00010402
-0.000102351
-0.000102111
-9.96352e-05
-9.96094e-05
-0.000116311
-0.000114833
-0.000112664
-0.000111282
-0.00011064
-0.000109713
-0.000108415
-0.000108187
-0.000105841
-0.000106123
-0.000125613
-0.00012422
-0.000122417
-0.000121338
-0.000121255
-0.000120431
-0.000119544
-0.000119328
-0.000117304
-0.000117816
-0.000135799
-0.00013466
-0.000133484
-0.000132795
-0.000133276
-0.000132598
-0.000132058
-0.000131872
-0.000130597
-0.000131132
-0.000141433
-0.000140871
-0.000140904
-0.000140633
-0.000141596
-0.000141089
-0.000141082
-0.000140805
-0.000140528
-0.000140738
-0.000128355
-0.000128589
-0.000130154
-0.000130378
-0.000131762
-0.000131522
-0.000132395
-0.000131933
-0.000132667
-0.000132248
-0.00010543
-0.00010647
-0.000109288
-0.000110052
-0.00011188
-0.000111971
-0.000113853
-0.000113086
-0.00011489
-0.000113744
-8.93625e-05
-9.1158e-05
-9.52524e-05
-9.659e-05
-9.88327e-05
-9.92529e-05
-0.000101952
-0.00010107
-0.000103807
-0.000101875
-7.88875e-05
-8.1319e-05
-8.64605e-05
-8.83393e-05
-9.09602e-05
-9.16368e-05
-9.46646e-05
-9.37247e-05
-9.75103e-05
-9.49269e-05
-6.85355e-05
-7.13633e-05
-7.68555e-05
-7.92422e-05
-8.22747e-05
-8.31551e-05
-8.63542e-05
-8.55124e-05
-8.9607e-05
-8.66277e-05
-6.31442e-05
-6.61728e-05
-7.1544e-05
-7.42361e-05
-7.77667e-05
-7.87118e-05
-8.23312e-05
-8.13623e-05
-8.51947e-05
-8.21077e-05
-6.45657e-05
-6.76563e-05
-7.25947e-05
-7.53321e-05
-7.92821e-05
-8.021e-05
-8.41062e-05
-8.29771e-05
-8.66478e-05
-8.38244e-05
-7.18072e-05
-7.4742e-05
-7.92329e-05
-8.17063e-05
-8.5978e-05
-8.66986e-05
-9.07848e-05
-8.96743e-05
-9.32754e-05
-9.09161e-05
-6.92344e-05
-7.18611e-05
-7.60345e-05
-7.81141e-05
-8.24496e-05
-8.29838e-05
-8.69937e-05
-8.61269e-05
-8.96719e-05
-8.78092e-05
-5.85884e-05
-6.0793e-05
-6.46432e-05
-6.62773e-05
-7.03749e-05
-7.07942e-05
-7.44779e-05
-7.39254e-05
-7.72337e-05
-7.58082e-05
-4.25623e-05
-4.42597e-05
-4.75558e-05
-4.87657e-05
-5.22909e-05
-5.26481e-05
-5.57541e-05
-5.54704e-05
-5.82803e-05
-5.73206e-05
-2.99785e-05
-3.11313e-05
-3.36188e-05
-3.44259e-05
-3.71098e-05
-3.73934e-05
-3.97262e-05
-3.96235e-05
-4.17016e-05
-4.11744e-05
-1.5968e-05
-1.66168e-05
-1.81441e-05
-1.86e-05
-2.02708e-05
-2.04586e-05
-2.19002e-05
-2.1889e-05
-2.3141e-05
-2.29324e-05
-6.52503e-06
-6.73129e-06
-7.24447e-06
-7.38923e-06
-7.956e-06
-8.02076e-06
-8.5077e-06
-8.51259e-06
-8.9277e-06
-8.87851e-06
2.46988e-07
4.46378e-07
8.85513e-07
1.02288e-06
9.71548e-07
1.06722e-06
9.92764e-07
8.90141e-07
1.0863e-06
3.13888e-07
4.85457e-07
9.71431e-07
2.00873e-06
2.44264e-06
2.50296e-06
2.8779e-06
2.71487e-06
2.58924e-06
2.99356e-06
9.62144e-07
3.94762e-07
1.30328e-06
2.93182e-06
3.52423e-06
3.73923e-06
4.38254e-06
4.22597e-06
4.07743e-06
4.66172e-06
1.5634e-06
4.43819e-09
1.06543e-06
3.28468e-06
4.12683e-06
4.5228e-06
5.32918e-06
5.24657e-06
5.05898e-06
5.78138e-06
1.90289e-06
-8.77257e-07
7.25053e-07
3.3806e-06
4.22296e-06
4.86902e-06
5.81199e-06
5.88903e-06
5.61632e-06
6.40689e-06
2.03353e-06
-1.95274e-06
-1.89964e-07
3.01628e-06
3.85801e-06
4.83859e-06
5.8101e-06
6.10433e-06
5.72159e-06
6.52062e-06
1.94034e-06
-3.13464e-06
-1.02638e-06
1.79785e-06
3.09674e-06
4.5806e-06
5.34525e-06
5.88828e-06
5.417e-06
6.18402e-06
1.6084e-06
-4.69165e-06
-2.5093e-06
3.10962e-07
1.92726e-06
3.94664e-06
4.4604e-06
5.27935e-06
4.7197e-06
5.43658e-06
1.01911e-06
-6.48711e-06
-4.26987e-06
-1.47706e-06
4.92254e-07
2.73536e-06
3.20626e-06
4.32446e-06
3.65813e-06
4.3295e-06
1.57028e-07
-8.74244e-06
-6.48033e-06
-3.53832e-06
-1.39299e-06
1.03959e-06
1.57292e-06
2.97481e-06
2.21766e-06
2.89381e-06
-9.85945e-07
-1.13819e-05
-9.05202e-06
-6.01869e-06
-3.75431e-06
-1.12332e-06
-4.89886e-07
1.18298e-06
3.91806e-07
1.14841e-06
-2.42716e-06
-1.45022e-05
-1.21039e-05
-8.93242e-06
-6.58014e-06
-3.77606e-06
-3.02214e-06
-1.10283e-06
-1.88258e-06
-9.31547e-07
-4.20613e-06
-1.80612e-05
-1.55879e-05
-1.23167e-05
-9.88811e-06
-6.90716e-06
-6.06412e-06
-3.95016e-06
-4.61194e-06
-3.38966e-06
-6.40644e-06
-2.21422e-05
-1.96011e-05
-1.62213e-05
-1.37165e-05
-1.05579e-05
-9.64224e-06
-7.33341e-06
-7.84302e-06
-6.26924e-06
-9.08533e-06
-2.67201e-05
-2.41142e-05
-2.06451e-05
-1.8069e-05
-1.47803e-05
-1.37659e-05
-1.12051e-05
-1.16355e-05
-9.7428e-06
-1.22854e-05
-3.18575e-05
-2.91973e-05
-2.56375e-05
-2.29844e-05
-1.96073e-05
-1.84679e-05
-1.5683e-05
-1.60447e-05
-1.38499e-05
-1.60994e-05
-3.75296e-05
-3.48228e-05
-3.11853e-05
-2.84756e-05
-2.50122e-05
-2.37594e-05
-2.07756e-05
-2.10398e-05
-1.85217e-05
-2.04999e-05
-4.37732e-05
-4.10333e-05
-3.73337e-05
-3.45653e-05
-3.1046e-05
-2.96769e-05
-2.65321e-05
-2.66987e-05
-2.38866e-05
-2.55996e-05
-5.05451e-05
-4.77865e-05
-4.40401e-05
-4.12318e-05
-3.76803e-05
-3.61977e-05
-3.29417e-05
-3.29941e-05
-2.98877e-05
-3.13898e-05
-5.78534e-05
-5.50925e-05
-5.13152e-05
-4.84846e-05
-4.49056e-05
-4.33284e-05
-3.99966e-05
-3.99077e-05
-3.65724e-05
-3.78977e-05
-6.56107e-05
-6.28691e-05
-5.90825e-05
-5.62478e-05
-5.26688e-05
-5.10164e-05
-4.76338e-05
-4.74216e-05
-4.39333e-05
-4.50258e-05
-7.37716e-05
-7.10716e-05
-6.72989e-05
-6.44821e-05
-6.09247e-05
-5.92159e-05
-5.58066e-05
-5.54764e-05
-5.19026e-05
-5.2711e-05
-8.21662e-05
-7.95326e-05
-7.58024e-05
-7.30239e-05
-6.95184e-05
-6.77757e-05
-6.43681e-05
-6.39349e-05
-6.03303e-05
-6.08151e-05
-9.06632e-05
-8.8122e-05
-8.44671e-05
-8.17473e-05
-7.83295e-05
-7.65717e-05
-7.31955e-05
-7.26714e-05
-6.90767e-05
-6.92189e-05
-9.89196e-05
-9.64991e-05
-9.29523e-05
-9.03138e-05
-8.70214e-05
-8.52725e-05
-8.19585e-05
-8.13638e-05
-7.78169e-05
-7.76257e-05
-0.000106471
-0.0001042
-0.000100795
-9.82566e-05
-9.5131e-05
-9.34128e-05
-9.01972e-05
-8.95552e-05
-8.60914e-05
-8.55969e-05
-0.000112275
-0.00011018
-0.000106944
-0.000104522
-0.000101597
-9.99314e-05
-9.68437e-05
-9.61787e-05
-9.28358e-05
-9.20871e-05
-0.000114596
-0.000112686
-0.000109635
-0.000107342
-0.000104656
-0.000103065
-0.000100138
-9.94836e-05
-9.62878e-05
-9.53622e-05
-0.000112055
-0.000110336
-0.000107488
-0.000105335
-0.000102928
-0.000101431
-9.87008e-05
-9.80883e-05
-9.50578e-05
-9.4072e-05
-0.000106737
-0.000105175
-0.000102528
-0.000100522
-9.84441e-05
-9.70543e-05
-9.45619e-05