/*--------------------------------*- C++ -*----------------------------------*\
| =========                 |                                                 |
| \\      /  F ield         | foam-extend: Open Source CFD                    |
|  \\    /   O peration     | Version:     3.2                                |
|   \\  /    A nd           | Web:         http://www.foam-extend.org         |
|    \\/     M anipulation  | For copyright notice see file Copyright         |
\*---------------------------------------------------------------------------*/
FoamFile
{
    version     2.0;
    format      ascii;
    class       regIOobject;
    location    "1500000/uniform";
    object      profilingInfo;
}
// * * * * * * * * * * * * * * * * * * * * * * * * * * * * * * * * * * * * * //

profilingInfo
(

    {
        id              16;
        parentId        14;
        description     "Foam::Time::writeObject - outputTime";
        calls           36;
        totalTime       1.92882;
        childTime       0;
        onStack         1;
    }

    {
        id              14;
        parentId        1;
        description     "Foam::Time::writeObject";
        calls           360000;
        totalTime       2.12028;
        childTime       1.92882;
        onStack         1;
    }

    {
        id              1;
        description     "application::main";
        calls           1;
        totalTime       5855.73;
        childTime       4725.99;
        onStack         1;
    }

    {
        id              3;
        parentId        2;
        description     "functionObjectList::read";
        calls           1;
        totalTime       3e-06;
        childTime       0;
        onStack         0;
    }

    {
        id              15;
        parentId        1;
        description     "functionObjects_.execute()";
        calls           359999;
        totalTime       0.236606;
        childTime       0;
        onStack         0;
    }

    {
        id              2;
        parentId        1;
        description     "functionObjects_.start()";
        calls           1;
        totalTime       1.1e-05;
        childTime       3e-06;
        onStack         0;
    }

    {
        id              4;
        parentId        1;
        description     "fvMatrix::solve_U";
        calls           360000;
        totalTime       465.047;
        childTime       429.334;
        onStack         0;
    }

    {
        id              10;
        parentId        1;
        description     "fvMatrix::solve_epsilon";
        calls           360000;
        totalTime       142.139;
        childTime       128.744;
        onStack         0;
    }

    {
        id              12;
        parentId        1;
        description     "fvMatrix::solve_k";
        calls           360000;
        totalTime       145.654;
        childTime       137.252;
        onStack         0;
    }

    {
        id              8;
        parentId        1;
        description     "fvMatrix::solve_p";
        calls           360000;
        totalTime       3970.79;
        childTime       3960.21;
        onStack         0;
    }

    {
        id              5;
        parentId        4;
        description     "lduMatrix::solver_Ux";
        calls           360000;
        totalTime       143.627;
        childTime       0;
        onStack         0;
    }

    {
        id              6;
        parentId        4;
        description     "lduMatrix::solver_Uy";
        calls           360000;
        totalTime       141.287;
        childTime       0;
        onStack         0;
    }

    {
        id              7;
        parentId        4;
        description     "lduMatrix::solver_Uz";
        calls           360000;
        totalTime       144.42;
        childTime       0;
        onStack         0;
    }

    {
        id              11;
        parentId        10;
        description     "lduMatrix::solver_epsilon";
        calls           360000;
        totalTime       128.744;
        childTime       0;
        onStack         0;
    }

    {
        id              13;
        parentId        12;
        description     "lduMatrix::solver_k";
        calls           360000;
        totalTime       137.252;
        childTime       0;
        onStack         0;
    }

    {
        id              9;
        parentId        8;
        description     "lduMatrix::solver_p";
        calls           360000;
        totalTime       3960.21;
        childTime       0;
        onStack         0;
    }
);


// ************************************************************************* //
