/*--------------------------------*- C++ -*----------------------------------*\
| =========                 |                                                 |
| \\      /  F ield         | foam-extend: Open Source CFD                    |
|  \\    /   O peration     | Version:     3.2                                |
|   \\  /    A nd           | Web:         http://www.foam-extend.org         |
|    \\/     M anipulation  | For copyright notice see file Copyright         |
\*---------------------------------------------------------------------------*/
FoamFile
{
    version     2.0;
    format      ascii;
    class       regIOobject;
    location    "2000000/uniform";
    object      profilingInfo;
}
// * * * * * * * * * * * * * * * * * * * * * * * * * * * * * * * * * * * * * //

profilingInfo
(

    {
        id              16;
        parentId        14;
        description     "Foam::Time::writeObject - outputTime";
        calls           80;
        totalTime       3.21384;
        childTime       0;
        onStack         1;
    }

    {
        id              14;
        parentId        1;
        description     "Foam::Time::writeObject";
        calls           800000;
        totalTime       3.68186;
        childTime       3.21384;
        onStack         1;
    }

    {
        id              1;
        description     "application::main";
        calls           1;
        totalTime       8981.98;
        childTime       6084.96;
        onStack         1;
    }

    {
        id              3;
        parentId        2;
        description     "functionObjectList::read";
        calls           1;
        totalTime       2e-06;
        childTime       0;
        onStack         0;
    }

    {
        id              15;
        parentId        1;
        description     "functionObjects_.execute()";
        calls           799999;
        totalTime       0.520115;
        childTime       0;
        onStack         0;
    }

    {
        id              2;
        parentId        1;
        description     "functionObjects_.start()";
        calls           1;
        totalTime       1e-05;
        childTime       2e-06;
        onStack         0;
    }

    {
        id              4;
        parentId        1;
        description     "fvMatrix::solve_U";
        calls           800000;
        totalTime       1278.05;
        childTime       1193.55;
        onStack         0;
    }

    {
        id              10;
        parentId        1;
        description     "fvMatrix::solve_epsilon";
        calls           800000;
        totalTime       356.101;
        childTime       324.167;
        onStack         0;
    }

    {
        id              12;
        parentId        1;
        description     "fvMatrix::solve_k";
        calls           800000;
        totalTime       342.079;
        childTime       321.813;
        onStack         0;
    }

    {
        id              8;
        parentId        1;
        description     "fvMatrix::solve_p";
        calls           800000;
        totalTime       4104.53;
        childTime       4080.01;
        onStack         0;
    }

    {
        id              5;
        parentId        4;
        description     "lduMatrix::solver_Ux";
        calls           800000;
        totalTime       330.697;
        childTime       0;
        onStack         0;
    }

    {
        id              6;
        parentId        4;
        description     "lduMatrix::solver_Uy";
        calls           800000;
        totalTime       326.798;
        childTime       0;
        onStack         0;
    }

    {
        id              7;
        parentId        4;
        description     "lduMatrix::solver_Uz";
        calls           800000;
        totalTime       536.053;
        childTime       0;
        onStack         0;
    }

    {
        id              11;
        parentId        10;
        description     "lduMatrix::solver_epsilon";
        calls           800000;
        totalTime       324.167;
        childTime       0;
        onStack         0;
    }

    {
        id              13;
        parentId        12;
        description     "lduMatrix::solver_k";
        calls           800000;
        totalTime       321.813;
        childTime       0;
        onStack         0;
    }

    {
        id              9;
        parentId        8;
        description     "lduMatrix::solver_p";
        calls           800000;
        totalTime       4080.01;
        childTime       0;
        onStack         0;
    }
);


// ************************************************************************* //
