/*--------------------------------*- C++ -*----------------------------------*\
| =========                 |                                                 |
| \\      /  F ield         | foam-extend: Open Source CFD                    |
|  \\    /   O peration     | Version:     3.2                                |
|   \\  /    A nd           | Web:         http://www.foam-extend.org         |
|    \\/     M anipulation  | For copyright notice see file Copyright         |
\*---------------------------------------------------------------------------*/
FoamFile
{
    version     2.0;
    format      ascii;
    class       volScalarField;
    location    "1500000";
    object      p;
}
// * * * * * * * * * * * * * * * * * * * * * * * * * * * * * * * * * * * * * //

dimensions      [0 2 -2 0 0 0 0];

internalField   nonuniform List<scalar> 
5000
(
6.71595e-11
0.000105302
0.000165814
0.000262095
0.000328726
0.000423624
0.000488654
0.00058487
0.000638618
0.000750395
2.85683e-07
0.000105416
0.000166115
0.000262469
0.000329138
0.000424028
0.00048906
0.000585341
0.000638919
0.000751012
3.73381e-07
0.000105162
0.000166102
0.000262722
0.000329434
0.000424499
0.00048954
0.000586061
0.00063956
0.000752294
6.22619e-07
0.000104852
0.000166111
0.000263
0.000329789
0.000425028
0.0004901
0.000586927
0.000640393
0.000754089
7.55098e-07
0.000104339
0.000165955
0.000263192
0.000330098
0.000425619
0.000490754
0.000588007
0.000641534
0.000756435
9.54262e-07
0.000103773
0.000165789
0.000263376
0.000330445
0.000426282
0.00049151
0.000589268
0.000642918
0.000759228
1.07954e-06
0.000103085
0.000165539
0.000263505
0.000330785
0.000427006
0.000492371
0.000590726
0.000644579
0.000762452
1.21421e-06
0.000102344
0.000165271
0.000263617
0.000331154
0.000427802
0.000493343
0.000592373
0.00064649
0.000766048
1.29272e-06
0.000101521
0.00016496
0.000263695
0.000331537
0.000428664
0.000494427
0.000594207
0.000648651
0.000769986
1.34714e-06
0.000100647
0.000164631
0.000263753
0.000331949
0.000429596
0.000495625
0.000596222
0.000651046
0.000774224
1.3458e-06
9.97077e-05
0.000164276
0.000263787
0.000332383
0.00043059
0.000496934
0.000598407
0.000653662
0.000778732
1.29807e-06
9.87154e-05
0.000163904
0.0002638
0.000332844
0.000431647
0.00049835
0.000600753
0.000656483
0.000783472
1.18725e-06
9.76636e-05
0.000163511
0.000263791
0.000333329
0.000432758
0.000499868
0.000603244
0.00065949
0.000788415
1.01353e-06
9.65549e-05
0.000163098
0.000263759
0.000333838
0.000433919
0.000501482
0.000605866
0.000662665
0.000793526
7.6686e-07
9.53845e-05
0.000162662
0.000263702
0.000334365
0.000435121
0.000503181
0.0006086
0.000665986
0.000798777
4.44322e-07
9.41502e-05
0.000162198
0.000263616
0.000334907
0.000436354
0.000504955
0.000611428
0.000669433
0.000804133
3.91507e-08
9.28465e-05
0.0001617
0.000263494
0.000335456
0.000437609
0.000506792
0.00061433
0.00067298
0.000809566
-4.51993e-07
9.14678e-05
0.000161162
0.000263331
0.000336003
0.00043887
0.000508677
0.000617283
0.000676605
0.000815041
-1.03374e-06
9.00062e-05
0.000160573
0.000263117
0.00033654
0.000440125
0.000510595
0.000620265
0.000680281
0.000820527
-1.70883e-06
8.84512e-05
0.000159919
0.000262837
0.000337048
0.000441354
0.000512523
0.000623247
0.000683978
0.000825989
-2.47989e-06
8.67898e-05
0.000159186
0.000262479
0.000337515
0.000442539
0.000514443
0.000626204
0.000687667
0.00083139
-3.34844e-06
8.49971e-05
0.000158337
0.000262003
0.000337895
0.000443633
0.000516306
0.000629083
0.000691297
0.000836678
-4.3127e-06
8.31018e-05
0.000157406
0.000261445
0.000338221
0.000444666
0.000518135
0.000631903
0.00069488
0.000841861
-5.37144e-06
8.11042e-05
0.000156383
0.000260792
0.000338477
0.000445616
0.000519906
0.000634637
0.000698388
0.000846911
-6.51934e-06
7.90195e-05
0.000155284
0.000260062
0.000338673
0.00044649
0.000521621
0.00063728
0.000701812
0.00085182
-7.7544e-06
7.68519e-05
0.000154105
0.000259245
0.000338794
0.000447275
0.000523261
0.000639815
0.000705135
0.000856566
-9.07214e-06
7.46084e-05
0.000152848
0.000258349
0.000338845
0.000447971
0.000524823
0.000642233
0.000708344
0.000861138
-1.04654e-05
7.22989e-05
0.000151521
0.000257376
0.000338823
0.000448573
0.000526297
0.000644525
0.000711426
0.000865524
-1.19242e-05
6.99352e-05
0.000150131
0.000256336
0.000338731
0.000449083
0.000527679
0.000646685
0.000714374
0.000869714
-1.34427e-05
6.7525e-05
0.000148681
0.000255229
0.000338564
0.000449496
0.00052896
0.000648702
0.000717174
0.000873697
-1.50072e-05
6.50827e-05
0.000147181
0.000254064
0.000338328
0.000449814
0.000530139
0.000650576
0.000719821
0.000877467
-1.66058e-05
6.26209e-05
0.000145641
0.000252851
0.000338026
0.000450041
0.000531213
0.000652304
0.000722312
0.000881019
-1.82325e-05
6.01472e-05
0.000144062
0.000251589
0.000337656
0.000450174
0.000532177
0.00065388
0.000724636
0.000884344
-1.98735e-05
5.7676e-05
0.000142457
0.000250289
0.000337222
0.000450216
0.00053303
0.000655304
0.000726792
0.000887439
-2.15115e-05
5.52252e-05
0.00014084
0.000248965
0.000336735
0.000450178
0.000533779
0.000656583
0.000728784
0.000890311
-2.31366e-05
5.28061e-05
0.00013922
0.000247625
0.0003362
0.000450065
0.000534427
0.000657724
0.000730614
0.000892961
-2.47351e-05
5.0432e-05
0.000137609
0.000246277
0.000335624
0.000449884
0.000534977
0.000658729
0.000732285
0.000895395
-2.62991e-05
4.8113e-05
0.000136016
0.000244931
0.000335016
0.000449643
0.000535435
0.000659608
0.000733803
0.000897623
-2.78078e-05
4.5869e-05
0.000134461
0.000243604
0.000334389
0.000449356
0.000535815
0.000660376
0.00073518
0.000899661
-2.92572e-05
4.37061e-05
0.000132953
0.000242301
0.000333751
0.000449031
0.000536123
0.000661043
0.000736426
0.000901524
-3.06281e-05
4.16423e-05
0.000131509
0.00024104
0.000333118
0.000448683
0.000536372
0.000661626
0.000737556
0.000903234
-3.1919e-05
3.96807e-05
0.000130138
0.000239824
0.000332497
0.000448319
0.000536569
0.000662134
0.000738576
0.000904805
-3.31135e-05
3.78373e-05
0.000128857
0.000238671
0.000331904
0.000447955
0.00053673
0.000662586
0.000739504
0.00090626
-3.42121e-05
3.6113e-05
0.00012767
0.000237579
0.000331338
0.000447586
0.000536848
0.000662974
0.000740332
0.000907593
-3.52023e-05
3.45249e-05
0.000126594
0.000236568
0.000330817
0.000447234
0.000536944
0.000663321
0.000741083
0.000908829
-3.60815e-05
3.30782e-05
0.000125628
0.00023563
0.000330331
0.000446874
0.000536991
0.000663581
0.000741705
0.000909892
-3.68373e-05
3.18078e-05
0.000124798
0.000234807
0.00032991
0.000446553
0.000537026
0.000663806
0.00074225
0.000910837
-3.74537e-05
3.07347e-05
0.000124106
0.000234085
0.000329535
0.000446214
0.000536995
0.000663864
0.00074259
0.000911412
-3.79015e-05
2.99473e-05
0.000123607
0.000233568
0.000329269
0.000445985
0.000536983
0.000663941
0.000742872
0.000911887
-3.81447e-05
2.94682e-05
0.000123313
0.000233221
0.000329108
0.000445748
0.000536939
0.00066372
0.000742917
0.000911428
-1.35875e-05
9.38662e-05
0.000154411
0.000251395
0.000318415
0.000414343
0.000479942
0.000577572
0.000631619
0.000745081
-1.32515e-05
9.40255e-05
0.000154736
0.000251793
0.000318849
0.000414771
0.000480371
0.000578065
0.000631972
0.00074576
-1.32154e-05
9.37257e-05
0.000154648
0.000251974
0.000319063
0.000415161
0.000480764
0.000578691
0.000632552
0.00074698
-1.302e-05
9.33685e-05
0.000154575
0.000252177
0.000319331
0.000415605
0.000481235
0.000579463
0.000633322
0.000748711
-1.30071e-05
9.27511e-05
0.000154284
0.000252247
0.000319505
0.000416064
0.000481751
0.000580399
0.00063435
0.00075094
-1.29464e-05
9.20671e-05
0.000153971
0.0002523
0.000319708
0.000416589
0.000482366
0.000581512
0.000635616
0.000753609
-1.30008e-05
9.12242e-05
0.000153545
0.000252275
0.000319884
0.000417158
0.000483069
0.000582806
0.000637142
0.000756692
-1.30666e-05
9.03103e-05
0.000153091
0.000252227
0.000320087
0.000417799
0.000483887
0.000584292
0.00063892
0.000760148
-1.32148e-05
8.92892e-05
0.000152581
0.000252135
0.000320301
0.000418505
0.000484818
0.000585968
0.00064095
0.000763948
-1.34035e-05
8.81996e-05
0.000152051
0.000252024
0.000320549
0.000419288
0.000485875
0.000587836
0.000643226
0.00076806
-1.36626e-05
8.70291e-05
0.000151492
0.000251889
0.000320828
0.000420144
0.000487055
0.000589889
0.000645736
0.000772453
-1.39767e-05
8.57944e-05
0.00015092
0.000251741
0.000321148
0.000421076
0.000488362
0.00059212
0.00064847
0.000777098
-1.43587e-05
8.44916e-05
0.000150333
0.000251579
0.000321508
0.00042208
0.00048979
0.000594519
0.000651411
0.000781966
-1.48033e-05
8.31277e-05
0.000149735
0.000251406
0.000321909
0.000423152
0.000491337
0.000597072
0.000654543
0.000787026
-1.53165e-05
8.17011e-05
0.000149125
0.000251222
0.000322349
0.000424287
0.000492993
0.000599763
0.000657846
0.000792248
-1.58967e-05
8.02141e-05
0.000148503
0.000251024
0.000322824
0.000425475
0.000494748
0.000602572
0.000661297
0.000797601
-1.6547e-05
7.8665e-05
0.000147862
0.000250809
0.000323327
0.000426704
0.000496588
0.000605478
0.000664874
0.000803053
-1.72667e-05
7.70532e-05
0.000147198
0.000250568
0.000323848
0.000427961
0.000498496
0.000608457
0.000668546
0.000808569
-1.80579e-05
7.53756e-05
0.000146501
0.000250293
0.000324375
0.000429227
0.000500454
0.000611482
0.000672286
0.000814113
-1.8919e-05
7.36278e-05
0.000145754
0.000249965
0.000324882
0.000430476
0.000502427
0.000614517
0.000676051
0.000819641
-1.98521e-05
7.18081e-05
0.000144948
0.000249573
0.000325356
0.000431689
0.000504398
0.000617536
0.000679814
0.000825123
-2.08462e-05
6.98999e-05
0.000144035
0.000249062
0.000325731
0.000432799
0.000506288
0.000620462
0.000683487
0.000830484
-2.1912e-05
6.79206e-05
0.000143055
0.00024848
0.000326056
0.000433851
0.000508144
0.000623331
0.00068711
0.000835745
-2.30377e-05
6.58771e-05
0.000142006
0.00024782
0.000326317
0.000434825
0.000509941
0.000626116
0.000690653
0.000840878
-2.42257e-05
6.37757e-05
0.000140899
0.000247097
0.000326529
0.000435738
0.00051169
0.000628825
0.000694122
0.000845883
-2.54622e-05
6.16301e-05
0.000139744
0.00024632
0.000326693
0.000436585
0.000513383
0.000631445
0.000697504
0.00085075
-2.67452e-05
5.94469e-05
0.000138546
0.000245495
0.00032681
0.000437366
0.000515017
0.000633971
0.000700791
0.000855469
-2.80682e-05
5.72331e-05
0.00013731
0.000244623
0.00032688
0.000438079
0.000516584
0.000636392
0.00070397
0.000860025
-2.94241e-05
5.49971e-05
0.000136039
0.000243711
0.000326903
0.000438723
0.000518079
0.000638704
0.000707034
0.000864411
-3.08097e-05
5.27425e-05
0.000134735
0.000242758
0.000326874
0.000439291
0.000519492
0.000640893
0.000709969
0.00086861
-3.22159e-05
5.04793e-05
0.000133403
0.000241767
0.000326794
0.000439783
0.000520818
0.000642955
0.000712766
0.000872614
-3.36323e-05
4.82156e-05
0.000132047
0.000240744
0.000326663
0.000440198
0.000522053
0.000644886
0.000715418
0.000876415
-3.50616e-05
4.59539e-05
0.000130668
0.000239683
0.000326472
0.000440528
0.000523185
0.000646672
0.000717911
0.000879997
-3.64924e-05
4.37047e-05
0.000129271
0.000238595
0.000326226
0.000440774
0.000524211
0.000648311
0.000720237
0.000883354
-3.7903e-05
4.14897e-05
0.000127876
0.000237492
0.000325937
0.000440948
0.00052514
0.000649812
0.000722405
0.000886493
-3.92904e-05
3.93142e-05
0.000126486
0.000236381
0.000325606
0.000441052
0.000525971
0.000651176
0.000724413
0.000889413
-4.06453e-05
3.71864e-05
0.000125108
0.000235262
0.000325234
0.000441086
0.000526702
0.000652402
0.000726257
0.000892113
-4.19653e-05
3.51122e-05
0.000123747
0.000234143
0.000324826
0.000441056
0.000527338
0.000653497
0.000727943
0.000894602
-4.32257e-05
3.3114e-05
0.000122424
0.000233042
0.000324399
0.000440977
0.000527892
0.000654477
0.000729484
0.000896897
-4.44353e-05
3.1188e-05
0.00012114
0.000231957
0.000323953
0.000440853
0.000528366
0.000655349
0.000730886
0.000899012
-4.55729e-05
2.93522e-05
0.000119912
0.000230903
0.000323502
0.000440695
0.00052877
0.000656125
0.00073216
0.000900962
-4.66503e-05
2.75997e-05
0.000118738
0.000229878
0.000323045
0.000440504
0.000529107
0.000656812
0.00073331
0.000902761
-4.76505e-05
2.59456e-05
0.000117636
0.000228896
0.000322598
0.000440294
0.000529387
0.000657423
0.000734347
0.000904427
-4.85861e-05
2.43812e-05
0.0001166
0.000227948
0.000322152
0.000440055
0.000529601
0.000657948
0.00073526
0.00090595
-4.94467e-05
2.29221e-05
0.000115646
0.000227052
0.000321725
0.000439805
0.000529764
0.000658405
0.000736067
0.000907351
-5.0229e-05
2.1573e-05
0.000114772
0.000226201
0.000321303
0.000439519
0.000529851
0.000658748
0.000736718
0.000908556
-5.09231e-05
2.03698e-05
0.000114006
0.000225436
0.000320921
0.000439247
0.000529904
0.000659032
0.000737271
0.000909619
-5.14918e-05
1.93481e-05
0.000113364
0.000224758
0.000320572
0.000438943
0.000529878
0.000659134
0.000737607
0.000910296
-5.19189e-05
1.8588e-05
0.000112891
0.000224263
0.000320314
0.00043873
0.000529859
0.000659237
0.000737875
0.000910848
-5.21365e-05
1.81501e-05
0.000112643
0.000223957
0.000320183
0.000438528
0.000529832
0.00065906
0.000737931
0.000910503
-1.96416e-05
9.12175e-05
0.000152517
0.000251076
0.000318805
0.000415708
0.000481879
0.000580319
0.000634582
0.000748998
-1.93544e-05
9.13808e-05
0.000152828
0.000251446
0.000319207
0.000416098
0.000482262
0.000580769
0.000634896
0.000749628
-1.93356e-05
9.11177e-05
0.000152769
0.00025165
0.000319445
0.000416503
0.00048266
0.000581392
0.000635475
0.000750825
-1.91943e-05
9.07685e-05
0.000152702
0.000251847
0.000319703
0.00041693
0.000483106
0.000582136
0.000636222
0.000752509
-1.92032e-05
9.01678e-05
0.00015243
0.000251927
0.000319885
0.00041739
0.000483615
0.000583056
0.000637236
0.000754695
-1.91667e-05
8.94826e-05
0.000152126
0.000251976
0.000320081
0.000417898
0.000484208
0.000584137
0.000638473
0.000757306
-1.92147e-05
8.86399e-05
0.000151713
0.00025195
0.000320251
0.000418454
0.000484893
0.000585399
0.000639968
0.000760331
-1.92586e-05
8.77174e-05
0.000151267
0.000251892
0.00032044
0.000419072
0.000485684
0.000586842
0.000641706
0.00076372
-1.93552e-05
8.6688e-05
0.000150764
0.000251787
0.000320636
0.00041975
0.000486585
0.000588469
0.000643692
0.000767448
-1.94683e-05
8.55871e-05
0.000150236
0.000251655
0.000320859
0.000420497
0.000487602
0.000590279
0.000645913
0.000771481
-1.96225e-05
8.44068e-05
0.000149677
0.000251494
0.000321106
0.00042131
0.000488736
0.000592268
0.000648361
0.000775789
-1.98045e-05
8.31636e-05
0.000149102
0.000251312
0.000321387
0.000422191
0.000489988
0.000594427
0.000651024
0.00078034
-2.00254e-05
8.18563e-05
0.00014851
0.000251111
0.000321701
0.000423138
0.000491354
0.000596746
0.000653886
0.000785107
-2.02813e-05
8.04929e-05
0.000147907
0.000250895
0.000322052
0.000424146
0.000492831
0.000599213
0.000656932
0.000790058
-2.05784e-05
7.90738e-05
0.000147293
0.000250665
0.000322437
0.000425212
0.000494412
0.000601812
0.000660141
0.000795165
-2.09161e-05
7.76033e-05
0.000146668
0.00025042
0.000322855
0.000426328
0.000496088
0.000604527
0.000663494
0.000800399
-2.12989e-05
7.60821e-05
0.000146032
0.000250161
0.000323303
0.000427487
0.000497849
0.00060734
0.00066697
0.000805731
-2.17266e-05
7.45143e-05
0.000145382
0.000249886
0.000323777
0.00042868
0.000499684
0.000610231
0.000670547
0.000811131
-2.22044e-05
7.28996e-05
0.000144715
0.000249591
0.000324268
0.000429894
0.000501578
0.00061318
0.000674201
0.00081657
-2.27294e-05
7.12486e-05
0.000144031
0.000249276
0.000324772
0.000431122
0.000503518
0.000616168
0.000677909
0.000822022
-2.3311e-05
6.95565e-05
0.000143318
0.000248929
0.000325274
0.000432345
0.000505484
0.000619169
0.000681646
0.000827459
-2.39304e-05
6.7864e-05
0.000142589
0.000248559
0.00032577
0.000433558
0.000507462
0.000622171
0.000685383
0.000832872
-2.46079e-05
6.61394e-05
0.000141833
0.000248159
0.000326258
0.000434755
0.000509447
0.000625158
0.000689114
0.000838228
-2.53301e-05
6.43944e-05
0.000141054
0.000247734
0.000326735
0.000435929
0.000511427
0.000628117
0.000692822
0.000843515
-2.61034e-05
6.26196e-05
0.000140248
0.000247279
0.000327196
0.000437073
0.000513393
0.000631033
0.000696492
0.000848711
-2.69171e-05
6.08223e-05
0.000139417
0.000246797
0.000327636
0.000438181
0.000515334
0.000633893
0.000700107
0.000853801
-2.77745e-05
5.8999e-05
0.000138555
0.000246283
0.000328047
0.000439242
0.000517235
0.000636678
0.000703648
0.000858763
-2.8669e-05
5.71541e-05
0.000137665
0.000245735
0.000328424
0.000440249
0.000519085
0.000639375
0.0007071
0.000863581
-2.95981e-05
5.529e-05
0.000136745
0.000245152
0.000328761
0.000441194
0.00052087
0.000641971
0.000710445
0.000868235
-3.05545e-05
5.34137e-05
0.000135798
0.000244536
0.000329054
0.000442073
0.000522584
0.000644454
0.000713671
0.000872714
-3.15358e-05
5.15263e-05
0.000134821
0.000243884
0.000329297
0.000442877
0.000524212
0.000646812
0.000716762
0.000876999
-3.2542e-05
4.96301e-05
0.000133812
0.00024319
0.00032948
0.000443596
0.000525741
0.000649031
0.0007197
0.000881073
-3.35571e-05
4.77377e-05
0.000132781
0.000242463
0.000329605
0.00044423
0.000527167
0.000651104
0.000722478
0.000884927
-3.45827e-05
4.585e-05
0.000131724
0.000241698
0.000329667
0.000444774
0.000528481
0.000653026
0.000725086
0.000888552
-3.55942e-05
4.399e-05
0.000130662
0.000240914
0.00032968
0.00044524
0.000529692
0.000654803
0.000727528
0.000891951
-3.65975e-05
4.21557e-05
0.000129591
0.000240106
0.000329637
0.000445623
0.000530792
0.00065643
0.000729798
0.000895119
-3.75771e-05
4.03603e-05
0.000128521
0.000239283
0.000329543
0.000445926
0.000531783
0.00065791
0.000731894
0.000898056
-3.85321e-05
3.86093e-05
0.00012746
0.000238449
0.000329405
0.000446156
0.00053267
0.000659252
0.000733826
0.000900776
-3.94373e-05
3.69245e-05
0.000126427
0.000237623
0.000329236
0.000446327
0.000533463
0.000660467
0.000735601
0.000903291
-4.03051e-05
3.52998e-05
0.00012542
0.000236802
0.000329038
0.000446443
0.000534168
0.000661566
0.000737231
0.000905618
-4.11078e-05
3.37585e-05
0.000124463
0.000236005
0.000328827
0.000446517
0.000534796
0.000662564
0.000738725
0.000907776
-4.1863e-05
3.22895e-05
0.00012355
0.000235227
0.000328603
0.000446553
0.000535351
0.000663467
0.000740091
0.000909777
-4.25472e-05
3.09135e-05
0.000122704
0.000234488
0.000328384
0.000446565
0.000535844
0.000664288
0.000741335
0.000911635
-4.31733e-05
2.96221e-05
0.00012192
0.000233781
0.000328165
0.000446548
0.000536269
0.000665021
0.000742454
0.000913348
-4.37299e-05
2.84327e-05
0.000121216
0.000233125
0.000327963
0.000446517
0.000536641
0.000665681
0.000743462
0.000914937
-4.42147e-05
2.73473e-05
0.000120587
0.000232508
0.000327761
0.000446444
0.000536931
0.000666223
0.000744312
0.000916328
-4.46287e-05
2.63956e-05
0.000120057
0.000231968
0.00032759
0.000446376
0.000537178
0.000666699
0.000745055
0.00091757
-4.49463e-05
2.55924e-05
0.000119615
0.000231481
0.00032742
0.000446247
0.00053732
0.000666969
0.000745558
0.000918406
-4.51789e-05
2.50022e-05
0.000119301
0.000231136
0.000327304
0.000446173
0.000537434
0.000667204
0.000745958
0.000919083
-4.53026e-05
2.46326e-05
0.000119111
0.000230887
0.000327226
0.000446025
0.000537458
0.000667082
0.000746068
0.000918793
-3.22394e-05
8.1433e-05
0.000143487
0.000243278
0.000311529
0.000409496
0.000476355
0.000575816
0.000630936
0.000746896
-3.19493e-05
8.16153e-05
0.000143825
0.000243662
0.000311953
0.000409911
0.00047676
0.00057629
0.000631289
0.000747549
-3.19226e-05
8.13513e-05
0.000143767
0.000243885
0.000312203
0.000410325
0.000477159
0.000576919
0.000631885
0.000748749
-3.17871e-05
8.09979e-05
0.000143704
0.000244085
0.000312469
0.000410761
0.000477609
0.000577672
0.000632645
0.00075043
-3.18021e-05
8.03815e-05
0.000143417
0.000244157
0.000312645
0.000411212
0.000478104
0.000578586
0.000633649
0.00075259
-3.17811e-05
7.96699e-05
0.000143089
0.000244184
0.000312823
0.0004117
0.000478673
0.000579652
0.000634865
0.000755166
-3.18496e-05
7.87898e-05
0.000142637
0.000244121
0.000312961
0.000412219
0.000479318
0.000580885
0.00063632
0.000758139
-3.19228e-05
7.78176e-05
0.000142141
0.000244012
0.000313105
0.000412787
0.000480059
0.000582287
0.000638005
0.000761467
-3.20557e-05
7.67276e-05
0.000141575
0.000243843
0.000313244
0.000413402
0.000480898
0.000583862
0.000639924
0.000765125
-3.2213e-05
7.55551e-05
0.000140974
0.000243636
0.000313399
0.000414077
0.000481845
0.000585609
0.000642069
0.000769082
-3.24178e-05
7.42939e-05
0.000140335
0.00024339
0.000313571
0.000414811
0.000482903
0.000587527
0.000644437
0.00077331
-3.26558e-05
7.29618e-05
0.000139673
0.000243119
0.000313771
0.000415609
0.000484075
0.000589611
0.000647015
0.000777779
-3.29366e-05
7.15597e-05
0.00013899
0.000242824
0.000314003
0.000416471
0.000485361
0.000591854
0.000649794
0.000782464
-3.32545e-05
7.00975e-05
0.000138295
0.000242513
0.000314271
0.000417396
0.00048676
0.000594247
0.000652757
0.000787335
-3.36136e-05
6.85782e-05
0.000137589
0.000242189
0.000314576
0.000418382
0.000488268
0.000596776
0.000655891
0.000792366
-3.40117e-05
6.70086e-05
0.000136877
0.000241855
0.000314921
0.000419425
0.000489878
0.000599428
0.000659175
0.000797528
-3.44507e-05
6.53919e-05
0.000136157
0.000241512
0.000315301
0.000420519
0.000491581
0.000602187
0.000662591
0.000802795
-3.49295e-05
6.37348e-05
0.000135432
0.000241162
0.000315717
0.000421657
0.000493369
0.000605035
0.000666118
0.000808139
-3.54496e-05
6.20402e-05
0.000134698
0.0002408
0.000316159
0.000422827
0.000495227
0.000607952
0.000669735
0.000813533
-3.60093e-05
6.03219e-05
0.000133961
0.000240433
0.000316629
0.000424027
0.000497148
0.000610925
0.000673424
0.000818959
-3.661e-05
5.85776e-05
0.0001332
0.000240038
0.0003171
0.000425228
0.000499103
0.000613922
0.000677153
0.000824386
-3.72397e-05
5.68593e-05
0.000132459
0.000239658
0.000317604
0.000426456
0.000501106
0.000616956
0.000680922
0.000829828
-3.79119e-05
5.51299e-05
0.000131708
0.000239265
0.000318115
0.000427684
0.000503133
0.000619991
0.000684704
0.000835236
-3.86156e-05
5.3402e-05
0.000130959
0.000238871
0.000318638
0.000428911
0.000505177
0.000623019
0.000688486
0.000840598
-3.93544e-05
5.16646e-05
0.0001302
0.000238465
0.00031916
0.000430124
0.000507222
0.000626018
0.000692245
0.000845887
-4.01208e-05
4.99224e-05
0.000129434
0.000238049
0.000319679
0.000431315
0.000509256
0.000628975
0.000695963
0.000851084
-4.09144e-05
4.81727e-05
0.000128655
0.000237618
0.000320184
0.000432475
0.000511264
0.00063187
0.000699621
0.000856167
-4.17286e-05
4.64199e-05
0.000127865
0.00023717
0.000320671
0.000433595
0.000513234
0.000634691
0.000703201
0.000861118
-4.25619e-05
4.4664e-05
0.00012706
0.000236702
0.000321129
0.000434664
0.00051515
0.000637419
0.000706683
0.000865914
-4.34035e-05
4.29143e-05
0.000126245
0.000236217
0.00032156
0.000435681
0.000517007
0.000640048
0.000710058
0.000870545
-4.42545e-05
4.11688e-05
0.000125414
0.000235708
0.00032195
0.000436632
0.000518786
0.000642557
0.000713303
0.000874987
-4.51191e-05
3.94235e-05
0.000124559
0.000235165
0.000322286
0.000437503
0.000520469
0.00064493
0.000716397
0.000879218
-4.59785e-05
3.76944e-05
0.000123693
0.000234597
0.000322573
0.000438296
0.000522055
0.000647163
0.000719336
0.000883233
-4.68398e-05
3.59771e-05
0.000122807
0.000233998
0.000322801
0.000439003
0.000523532
0.000649244
0.000722105
0.000887016
-4.76797e-05
3.42922e-05
0.000121919
0.00023338
0.000322979
0.000439629
0.000524903
0.000651177
0.000724703
0.000890568
-4.85101e-05
3.26326e-05
0.00012102
0.000232737
0.000323098
0.000440168
0.000526157
0.000652954
0.000727122
0.000893881
-4.93047e-05
3.10213e-05
0.000120131
0.000232083
0.00032317
0.000440628
0.000527301
0.000654582
0.000729365
0.000896959
-5.00737e-05
2.94545e-05
0.000119249
0.00023142
0.000323196
0.000441016
0.000528341
0.00065607
0.000731441
0.000899817
-5.07881e-05
2.79558e-05
0.000118396
0.000230761
0.000323187
0.000441338
0.000529279
0.000657423
0.000733352
0.000902459
-5.14772e-05
2.65073e-05
0.00011756
0.000230099
0.000323142
0.000441596
0.000530121
0.000658654
0.000735111
0.000904908
-5.20978e-05
2.51424e-05
0.000116771
0.000229459
0.000323079
0.000441808
0.00053088
0.000659775
0.000736725
0.000907178
-5.26857e-05
2.38366e-05
0.000116014
0.000228827
0.000322992
0.000441973
0.000531556
0.000660796
0.000738207
0.000909289
-5.32064e-05
2.26185e-05
0.000115319
0.000228226
0.000322903
0.000442106
0.000532163
0.000661723
0.000739556
0.000911244
-5.36824e-05
2.14734e-05
0.000114674
0.000227649
0.000322805
0.000442203
0.000532697
0.000662558
0.000740775
0.000913051
-5.41e-05
2.0422e-05
0.000114103
0.000227119
0.000322722
0.000442281
0.000533171
0.000663312
0.000741873
0.000914724
-5.44521e-05
1.94682e-05
0.000113602
0.000226622
0.000322632
0.000442312
0.000533557
0.000663942
0.000742806
0.000916193
-5.47554e-05
1.86358e-05
0.000113191
0.000226194
0.000322567
0.00044234
0.000533891
0.000664496
0.000743622
0.000917504
-5.49578e-05
1.79463e-05
0.000112861
0.000225812
0.000322495
0.000442299
0.000534115
0.000664841
0.000744194
0.000918406
-5.51114e-05
1.74397e-05
0.00011263
0.000225545
0.000322452
0.000442291
0.000534287
0.00066513
0.000744643
0.000919129
-5.51727e-05
1.71441e-05
0.000112519
0.00022537
0.000322445
0.000442209
0.000534374
0.000665068
0.000744814
0.000918899
-3.8986e-05
7.7472e-05
0.000140963
0.000242698
0.000312442
0.000411586
0.000480042
0.000580057
0.000636327
0.000753595
-3.87064e-05
7.76504e-05
0.000141298
0.000243075
0.000312859
0.000412
0.000480431
0.000580521
0.000636693
0.000754231
-3.86825e-05
7.73921e-05
0.000141242
0.000243299
0.000313103
0.000412422
0.000480828
0.000581146
0.000637291
0.000755427
-3.85718e-05
7.70195e-05
0.000141163
0.000243475
0.000313338
0.000412841
0.000481238
0.000581871
0.000638028
0.000757065
-3.86034e-05
7.6391e-05
0.000140865
0.000243529
0.000313484
0.00041328
0.00048169
0.000582753
0.000638999
0.00075917
-3.86049e-05
7.56604e-05
0.000140521
0.00024353
0.000313623
0.000413744
0.000482195
0.000583779
0.000640161
0.000761659
-3.8687e-05
7.47676e-05
0.000140057
0.000243446
0.000313726
0.000414239
0.000482774
0.000584972
0.000641551
0.000764525
-3.87698e-05
7.37835e-05
0.000139549
0.000243316
0.000313833
0.000414779
0.000483439
0.000586329
0.000643154
0.000767723
-3.89006e-05
7.26878e-05
0.000138976
0.000243129
0.000313937
0.000415366
0.000484203
0.000587858
0.000644978
0.000771234
-3.90442e-05
7.15145e-05
0.000138371
0.000242906
0.000314059
0.00041601
0.000485072
0.000589553
0.000647016
0.000775028
-3.92188e-05
7.02602e-05
0.000137733
0.000242648
0.000314199
0.000416712
0.00048605
0.000591415
0.000649267
0.000779083
-3.94088e-05
6.89434e-05
0.000137078
0.000242368
0.000314369
0.000417478
0.000487142
0.000593436
0.00065172
0.000783372
-3.96206e-05
6.75668e-05
0.000136409
0.000242067
0.000314573
0.000418307
0.000488348
0.000595611
0.000654367
0.000787872
-3.98474e-05
6.61417e-05
0.000135735
0.000241756
0.000314815
0.0004192
0.000489666
0.000597926
0.000657191
0.000792555
-4.00913e-05
6.46724e-05
0.00013506
0.000241435
0.000315097
0.000420153
0.000491094
0.000600376
0.000660182
0.000797396
-4.03495e-05
6.31669e-05
0.000134387
0.00024111
0.000315421
0.000421162
0.000492623
0.000602941
0.000663317
0.000802363
-4.06232e-05
6.163e-05
0.000133719
0.000240783
0.000315786
0.000422224
0.000494246
0.000605614
0.000666588
0.000807436
-4.09117e-05
6.00695e-05
0.000133059
0.000240458
0.000316193
0.000423335
0.000495958
0.000608377
0.000669971
0.000812586
-4.12164e-05
5.84908e-05
0.000132405
0.000240134
0.000316638
0.000424486
0.000497748
0.000611215
0.000673455
0.000817801
-4.15372e-05
5.69091e-05
0.000131767
0.000239822
0.000317126
0.000425681
0.000499619
0.000614125
0.000677031
0.000823064
-4.18749e-05
5.53295e-05
0.000131133
0.000239509
0.00031764
0.000426896
0.000501537
0.000617064
0.000680654
0.000828346
-4.22206e-05
5.38e-05
0.000130543
0.000239235
0.000318214
0.000428169
0.000503547
0.000620088
0.000684381
0.000833719
-4.25873e-05
5.22842e-05
0.000129969
0.000238974
0.000318821
0.000429465
0.000505608
0.00062314
0.000688154
0.000839101
-4.29674e-05
5.07916e-05
0.000129418
0.000238734
0.000319466
0.000430787
0.000507719
0.00062622
0.000691969
0.000844487
-4.33653e-05
4.93092e-05
0.000128878
0.000238504
0.000320133
0.000432117
0.000509856
0.000629296
0.00069579
0.000849836
-4.37771e-05
4.78379e-05
0.000128347
0.000238281
0.000320815
0.000433445
0.000512005
0.000632354
0.000699599
0.000855125
-4.42043e-05
4.63725e-05
0.000127818
0.000238057
0.0003215
0.000434756
0.000514146
0.00063537
0.000703368
0.000860323
-4.46438e-05
4.49133e-05
0.000127287
0.000237827
0.000322177
0.00043604
0.000516263
0.000638325
0.000707077
0.000865406
-4.50953e-05
4.34586e-05
0.000126748
0.000237585
0.000322836
0.000437282
0.000518337
0.000641199
0.0007107
0.000870348
-4.55543e-05
4.20115e-05
0.000126202
0.000237328
0.000323468
0.000438474
0.000520354
0.000643976
0.000714219
0.000875127
-4.60196e-05
4.05717e-05
0.000125642
0.000237049
0.000324064
0.000439603
0.000522297
0.000646638
0.000717612
0.00087972
-4.64964e-05
3.91344e-05
0.000125061
0.00023674
0.000324608
0.000440655
0.000524148
0.000649164
0.000720857
0.000884104
-4.69733e-05
3.77084e-05
0.000124463
0.000236401
0.000325098
0.000441623
0.000525896
0.000651546
0.000723941
0.000888264
-4.74552e-05
3.6291e-05
0.000123842
0.000236027
0.000325526
0.000442502
0.000527532
0.000653773
0.000726851
0.000892188
-4.79273e-05
3.48944e-05
0.000123207
0.000235622
0.00032589
0.000443286
0.000529047
0.000655836
0.000729577
0.000895864
-4.83985e-05
3.35146e-05
0.000122552
0.000235182
0.000326187
0.000443975
0.000530438
0.000657736
0.000732115
0.000899293
-4.88313e-05
3.21856e-05
0.000121908
0.000234732
0.000326435
0.000444583
0.000531717
0.000659484
0.000734475
0.000902483
-4.92562e-05
3.08854e-05
0.000121255
0.000234256
0.000326622
0.000445105
0.000532878
0.00066108
0.000736659
0.000905441
-4.9627e-05
2.9651e-05
0.000120627
0.00023378
0.00032677
0.000445556
0.000533933
0.000662537
0.000738673
0.000908182
-4.99885e-05
2.84529e-05
0.000120002
0.00023329
0.000326869
0.000445936
0.000534887
0.000663871
0.000740537
0.000910727
-5.02851e-05
2.73335e-05
0.000119419
0.000232814
0.000326946
0.000446264
0.000535753
0.000665092
0.00074226
0.000913107
-5.05677e-05
2.62588e-05
0.000118855
0.000232339
0.000326993
0.000446546
0.000536541
0.000666223
0.000743856
0.000915313
-5.07906e-05
2.52662e-05
0.000118348
0.000231892
0.000327037
0.000446794
0.000537257
0.000667241
0.000745289
0.000917334