/*--------------------------------*- C++ -*----------------------------------*\
| =========                 |                                                 |
| \\      /  F ield         | foam-extend: Open Source CFD                    |
|  \\    /   O peration     | Version:     3.2                                |
|   \\  /    A nd           | Web:         http://www.foam-extend.org         |
|    \\/     M anipulation  | For copyright notice see file Copyright         |
\*---------------------------------------------------------------------------*/
FoamFile
{
    version     2.0;
    format      ascii;
    class       surfaceScalarField;
    location    "1500000";
    object      phi;
}
// * * * * * * * * * * * * * * * * * * * * * * * * * * * * * * * * * * * * * //

dimensions      [0 3 -1 0 0 0 0];

internalField   nonuniform List<scalar> 
13900
(
0.0132417
3.63477e-09
-0.00342397
0.0132417
4.21569e-09
-0.00342397
0.0132417
5.45852e-09
-0.00342397
0.0132417
4.53349e-09
-0.00342398
0.0132417
4.96274e-09
-0.00342398
0.0132417
3.5081e-09
-0.00342399
0.0132417
3.70106e-09
-0.00342399
0.0132417
1.46478e-09
-0.00342399
0.0132417
1.32866e-09
-0.003424
-2.76507e-09
-0.00342401
0.0177634
6.76003e-09
-0.00441008
0.0177634
7.93607e-09
-0.00441008
0.0177634
9.9155e-09
-0.00441008
0.0177634
8.81199e-09
-0.00441009
0.0177634
9.52177e-09
-0.00441009
0.0177634
7.36646e-09
-0.0044101
0.0177634
7.47062e-09
-0.00441011
0.0177634
3.96027e-09
-0.00441011
0.0177634
3.23356e-09
-0.00441012
-4.05988e-09
-0.00441013
0.020694
9.64319e-09
-0.00497492
0.020694
1.11877e-08
-0.00497492
0.020694
1.35686e-08
-0.00497492
0.020694
1.24955e-08
-0.00497493
0.020694
1.34248e-08
-0.00497494
0.020694
1.08555e-08
-0.00497494
0.020694
1.08432e-08
-0.00497495
0.020694
6.47577e-09
-0.00497496
0.020694
5.17836e-09
-0.00497496
-4.68268e-09
-0.00497497
0.0231098
1.23384e-08
-0.00539739
0.0231098
1.41029e-08
-0.00539739
0.0231098
1.66487e-08
-0.0053974
0.0231098
1.56588e-08
-0.00539741
0.0231097
1.67081e-08
-0.00539741
0.0231097
1.38398e-08
-0.00539742
0.0231097
1.36687e-08
-0.00539743
0.0231097
8.64346e-09
-0.00539743
0.0231097
6.7902e-09
-0.00539744
-5.05613e-09
-0.00539746
0.025294
1.48587e-08
-0.0057499
0.025294
1.67487e-08
-0.0057499
0.025294
1.93065e-08
-0.00574991
0.025294
1.84063e-08
-0.00574992
0.025294
1.94884e-08
-0.00574992
0.025294
1.63842e-08
-0.00574993
0.025294
1.60132e-08
-0.00574994
0.025294
1.04508e-08
-0.00574995
0.025294
8.04857e-09
-0.00574995
-5.31288e-09
-0.00574997
0.0273689
1.72088e-08
-0.00606204
0.0273689
1.91632e-08
-0.00606205
0.0273689
2.16336e-08
-0.00606205
0.0273689
2.08145e-08
-0.00606206
0.0273689
2.18575e-08
-0.00606207
0.0273689
1.85629e-08
-0.00606208
0.0273689
1.79595e-08
-0.00606209
0.0273689
1.19493e-08
-0.00606209
0.0273689
9.01179e-09
-0.0060621
-5.49311e-09
-0.00606212
0.0293976
1.93967e-08
-0.00634818
0.0293976
2.13732e-08
-0.00634818
0.0293976
2.36922e-08
-0.00634819
0.0293976
2.29412e-08
-0.0063482
0.0293976
2.38887e-08
-0.00634821
0.0293976
2.04394e-08
-0.00634822
0.0293976
1.95809e-08
-0.00634823
0.0293976
1.31975e-08
-0.00634824
0.0293976
9.74758e-09
-0.00634825
-5.60265e-09
-0.00634826
0.0314169
2.14329e-08
-0.00661606
0.0314169
2.34017e-08
-0.00661607
0.0314169
2.55289e-08
-0.00661608
0.0314169
2.48331e-08
-0.00661608
0.0314169
2.56415e-08
-0.00661609
0.0314169
2.20679e-08
-0.0066161
0.0314169
2.09402e-08
-0.00661611
0.0314169
1.42503e-08
-0.00661612
0.0314169
1.03196e-08
-0.00661613
-5.63274e-09
-0.00661615
0.0334508
2.33305e-08
-0.00687017
0.0334508
2.52703e-08
-0.00687017
0.0334508
2.71819e-08
-0.00687018
0.0334508
2.65297e-08
-0.00687019
0.0334508
2.71664e-08
-0.0068702
0.0334508
2.34952e-08
-0.00687021
0.0334508
2.20921e-08
-0.00687022
0.0334508
1.51575e-08
-0.00687023
0.0334508
1.07845e-08
-0.00687024
-5.56847e-09
-0.00687026
0.035516
2.51034e-08
-0.00711315
0.035516
2.69991e-08
-0.00711315
0.035516
2.86829e-08
-0.00711316
0.035516
2.80646e-08
-0.00711317
0.035516
2.85063e-08
-0.00711318
0.035516
2.47625e-08
-0.00711319
0.035516
2.30845e-08
-0.0071132
0.035516
1.59637e-08
-0.00711321
0.035516
1.11921e-08
-0.00711323
-5.39236e-09
-0.00711324
0.0376248
2.67657e-08
-0.00734659
0.0376248
2.86066e-08
-0.0073466
0.0376248
3.00593e-08
-0.0073466
0.0376248
2.94671e-08
-0.00734662
0.0376248
2.96989e-08
-0.00734663
0.0376248
2.59064e-08
-0.00734664
0.0376248
2.39603e-08
-0.00734665
0.0376248
1.67087e-08
-0.00734666
0.0376248
1.15862e-08
-0.00734667
-5.08645e-09
-0.0073467
0.0397872
2.83312e-08
-0.00757139
0.0397872
3.01099e-08
-0.00757139
0.0397872
3.13351e-08
-0.0075714
0.0397872
3.07635e-08
-0.00757141
0.0397872
3.07779e-08
-0.00757142
0.0397872
2.69597e-08
-0.00757144
0.0397872
2.47576e-08
-0.00757145
0.0397872
1.74281e-08
-0.00757146
0.0397872
1.20047e-08
-0.00757147
-4.63336e-09
-0.0075715
0.0420113
2.98129e-08
-0.00778795
0.0420113
3.15251e-08
-0.00778795
0.0420113
3.25314e-08
-0.00778796
0.0420113
3.19771e-08
-0.00778797
0.0420113
3.17733e-08
-0.00778798
0.0420113
2.7952e-08
-0.007788
0.0420113
2.55107e-08
-0.00778801
0.0420113
1.81535e-08
-0.00778803
0.0420113
1.24807e-08
-0.00778804
-4.01687e-09
-0.00778806
0.0443041
3.12229e-08
-0.00799635
0.0443041
3.28665e-08
-0.00799635
0.044304
3.36668e-08
-0.00799636
0.044304
3.31288e-08
-0.00799637
0.044304
3.27121e-08
-0.00799639
0.044304
2.89098e-08
-0.0079964
0.044304
2.62506e-08
-0.00799642
0.044304
1.89131e-08
-0.00799643
0.044304
1.30429e-08
-0.00799645
-3.22224e-09
-0.00799647
0.0466718
3.2572e-08
-0.00819641
0.0466718
3.41471e-08
-0.00819641
0.0466718
3.47577e-08
-0.00819642
0.0466718
3.42372e-08
-0.00819644
0.0466718
3.36184e-08
-0.00819645
0.0466718
2.98571e-08
-0.00819647
0.0466718
2.70049e-08
-0.00819648
0.0466718
1.97316e-08
-0.0081965
0.0466718
1.37158e-08
-0.00819651
-2.23633e-09
-0.00819654
0.0491203
3.38692e-08
-0.00838775
0.0491203
3.53778e-08
-0.00838776
0.0491203
3.58179e-08
-0.00838777
0.0491203
3.53185e-08
-0.00838778
0.0491203
3.45138e-08
-0.0083878
0.0491203
3.08152e-08
-0.00838781
0.0491203
2.77983e-08
-0.00838783
0.0491203
2.06312e-08
-0.00838784
0.0491203
1.45205e-08
-0.00838786
-1.04772e-09
-0.00838789
0.0516549
3.51218e-08
-0.00856983
0.0516549
3.65677e-08
-0.00856983
0.0516549
3.68594e-08
-0.00856984
0.0516549
3.63871e-08
-0.00856986
0.0516549
3.54173e-08
-0.00856988
0.0516549
3.18033e-08
-0.00856989
0.0516549
2.8653e-08
-0.00856991
0.0516549
2.1631e-08
-0.00856993
0.0516549
1.54749e-08
-0.00856994
3.52969e-10
-0.00856997
0.0542807
3.63346e-08
-0.00874195
0.0542807
3.77239e-08
-0.00874196
0.0542807
3.78918e-08
-0.00874197
0.0542807
3.74552e-08
-0.00874199
0.0542807
3.63457e-08
-0.008742
0.0542807
3.28381e-08
-0.00874202
0.0542807
2.95879e-08
-0.00874204
0.0542807
2.27472e-08
-0.00874206
0.0542807
1.65933e-08
-0.00874207
1.97191e-09
-0.00874211
0.0570026
3.751e-08
-0.00890331
0.0570026
3.88511e-08
-0.00890332
0.0570026
3.89228e-08
-0.00890333
0.0570026
3.85329e-08
-0.00890335
0.0570026
3.73127e-08
-0.00890337
0.0570026
3.39326e-08
-0.00890339
0.0570026
3.06173e-08
-0.0089034
0.0570026
2.39903e-08
-0.00890342
0.0570026
1.78833e-08
-0.00890344
3.80846e-09
-0.00890348
0.0598256
3.86473e-08
-0.009053
0.0598256
3.9951e-08
-0.00905301
0.0598256
3.99558e-08
-0.00905302
0.0598256
3.96246e-08
-0.00905304
0.0598256
3.83235e-08
-0.00905306
0.0598256
3.50894e-08
-0.00905308
0.0598256
3.17429e-08
-0.0090531
0.0598256
2.53569e-08
-0.00905312
0.0598256
1.93375e-08
-0.00905314
5.8456e-09
-0.00905317
0.0627543
3.97425e-08
-0.00918999
0.0627543
4.10153e-08
-0.00919
0.0627543
4.0976e-08
-0.00919002
0.0627543
4.07097e-08
-0.00919003
0.0627543
3.93533e-08
-0.00919005
0.0627543
3.6278e-08
-0.00919007
0.0627543
3.29298e-08
-0.00919009
0.0627543
2.68059e-08
-0.00919012
0.0627543
2.09084e-08
-0.00919014
8.02511e-09
-0.00919017
0.0657936
4.07887e-08
-0.00931319
0.0657936
4.2023e-08
-0.0093132
0.0657936
4.19455e-08
-0.00931322
0.0657936
4.17373e-08
-0.00931324
0.0657936
4.03422e-08
-0.00931326
0.0657936
3.74307e-08
-0.00931328
0.0657936
3.41053e-08
-0.0093133
0.0657936
2.82583e-08
-0.00931332
0.0657936
2.25119e-08
-0.00931335
1.02538e-08
-0.00931338
0.0689482
4.17779e-08
-0.00942142
0.0689482
4.29667e-08
-0.00942143
0.0689482
4.28539e-08
-0.00942144
0.0689482
4.26932e-08
-0.00942146
0.0689482
4.12714e-08
-0.00942149
0.0689482
3.85233e-08
-0.00942151
0.0689482
3.52407e-08
-0.00942153
0.0689482
2.96794e-08
-0.00942155
0.0689482
2.41078e-08
-0.00942158
1.24827e-08
-0.00942162
0.0722228
4.27019e-08
-0.00951342
0.0722228
4.38403e-08
-0.00951343
0.0722228
4.36967e-08
-0.00951344
0.0722228
4.35744e-08
-0.00951347
0.0722228
4.21377e-08
-0.00951349
0.0722228
3.95501e-08
-0.00951351
0.0722228
3.63278e-08
-0.00951354
0.0722228
3.10569e-08
-0.00951356
0.0722228
2.56793e-08
-0.00951359
1.46876e-08
-0.00951363
0.0756221
4.3552e-08
-0.00958788
0.0756221
4.46377e-08
-0.00958789
0.0756221
4.44699e-08
-0.00958791
0.0756221
4.43799e-08
-0.00958793
0.0756221
4.29409e-08
-0.00958796
0.0756221
4.05101e-08
-0.00958798
0.0756221
3.73635e-08
-0.00958801
0.0756221
3.2384e-08
-0.00958803
0.0756221
2.72156e-08
-0.00958806
1.68539e-08
-0.0095881
0.0791511
4.43195e-08
-0.00964345
0.0791511
4.53515e-08
-0.00964346
0.0791511
4.51667e-08
-0.00964348
0.0791511
4.51035e-08
-0.0096435
0.0791511
4.36747e-08
-0.00964353
0.0791511
4.1398e-08
-0.00964356
0.0791511
3.83423e-08
-0.00964358
0.0791511
3.36546e-08
-0.00964361
0.0791511
2.87083e-08
-0.00964364
1.89698e-08
-0.00964368
0.0828146
4.49942e-08
-0.00967874
0.0828146
4.59721e-08
-0.00967875
0.0828146
4.57763e-08
-0.00967877
0.0828146
4.57359e-08
-0.00967879
0.0828146
4.43295e-08
-0.00967882
0.0828146
4.22046e-08
-0.00967885
0.0828146
3.92539e-08
-0.00967887
0.0828146
3.48574e-08
-0.0096789
0.0828146
3.01447e-08
-0.00967893
2.10204e-08
-0.00967898
0.0866174
4.55637e-08
-0.00969233
0.0866174
4.64877e-08
-0.00969235
0.0866174
4.62866e-08
-0.00969237
0.0866174
4.62664e-08
-0.00969239
0.0866174
4.48938e-08
-0.00969242
0.0866174
4.29184e-08
-0.00969245
0.0866174
4.00856e-08
-0.00969248
0.0866174
3.59786e-08
-0.0096925
0.0866174
3.15086e-08
-0.00969253
2.2988e-08
-0.00969258
0.0905645
4.60139e-08
-0.00968285
0.0905645
4.6885e-08
-0.00968286
0.0905645
4.66841e-08
-0.00968288
0.0905645
4.6682e-08
-0.00968291
0.0905645
4.53539e-08
-0.00968294
0.0905645
4.35255e-08
-0.00968296
0.0905645
4.08219e-08
-0.00968299
0.0905645
3.70012e-08
-0.00968302
0.0905645
3.27811e-08
-0.00968306
2.48524e-08
-0.00968311
0.0946609
4.63286e-08
-0.00964892
0.0946609
4.71481e-08
-0.00964893
0.0946609
4.69523e-08
-0.00964895
0.0946609
4.6967e-08
-0.00964898
0.0946609
4.56929e-08
-0.00964901
0.0946608
4.40087e-08
-0.00964904
0.0946608
4.1444e-08
-0.00964907
0.0946608
3.79051e-08
-0.0096491
0.0946608
3.39398e-08
-0.00964914
2.65893e-08
-0.00964919
0.0989116
4.64916e-08
-0.00958927
0.0989116
4.7261e-08
-0.00958928
0.0989116
4.70745e-08
-0.00958931
0.0989116
4.71051e-08
-0.00958933
0.0989116
4.5893e-08
-0.00958937
0.0989116
4.43498e-08
-0.0095894
0.0989116
4.19315e-08
-0.00958943
0.0989116
3.86686e-08
-0.00958946
0.0989116
3.49609e-08
-0.0095895
2.81737e-08
-0.00958955
0.103322
4.6485e-08
-0.00950274
0.103322
4.72058e-08
-0.00950276
0.103322
4.70321e-08
-0.00950278
0.103322
4.7078e-08
-0.00950281
0.103322
4.59348e-08
-0.00950284
0.103322
4.45288e-08
-0.00950288
0.103322
4.22627e-08
-0.00950291
0.103322
3.92689e-08
-0.00950294
0.103322
3.58194e-08
-0.00950298
2.95786e-08
-0.00950304
0.107896
4.62873e-08
-0.00938837
0.107896
4.69613e-08
-0.00938838
0.107896
4.68028e-08
-0.00938841
0.107896
4.68636e-08
-0.00938844
0.107896
4.57945e-08
-0.00938847
0.107896
4.45216e-08
-0.00938851
0.107896
4.24114e-08
-0.00938854
0.107896
3.96783e-08
-0.00938858
0.107896
3.64853e-08
-0.00938861
3.07719e-08
-0.00938867
0.112641
4.58789e-08
-0.00924543
0.112641
4.65081e-08
-0.00924545
0.112641
4.63664e-08
-0.00924547
0.112641
4.64412e-08
-0.00924551
0.112641
4.54496e-08
-0.00924554
0.112641
4.43044e-08
-0.00924558
0.112641
4.23518e-08
-0.00924561
0.112641
3.98693e-08
-0.00924565
0.112641
3.6929e-08
-0.00924569
3.17215e-08
-0.00924575
0.11756
4.52462e-08
-0.00907358
0.11756
4.58325e-08
-0.0090736
0.11756
4.57082e-08
-0.00907363
0.11756
4.57963e-08
-0.00907366
0.11756
4.48838e-08
-0.0090737
0.11756
4.38602e-08
-0.00907373
0.11756
4.20647e-08
-0.00907377
0.11756
3.98209e-08
-0.00907381
0.11756
3.71274e-08
-0.00907385
3.24015e-08
-0.00907391
0.122659
4.43748e-08
-0.00887295
0.122659
4.49205e-08
-0.00887296
0.122659
4.48133e-08
-0.00887299
0.122659
4.49137e-08
-0.00887303
0.122659
4.40805e-08
-0.00887307
0.122659
4.31717e-08
-0.0088731
0.122659
4.15314e-08
-0.00887314
0.122659
3.95131e-08
-0.00887318
0.122659
3.70586e-08
-0.00887323
3.27874e-08
-0.00887329
0.127944
4.3249e-08
-0.00864428
0.127944
4.37561e-08
-0.00864429
0.127944
4.36648e-08
-0.00864433
0.127944
4.37765e-08
-0.00864436
0.127944
4.30215e-08
-0.0086444
0.127944
4.222e-08
-0.00864444
0.127944
4.0731e-08
-0.00864448
0.127944
3.89239e-08
-0.00864452
0.127944
3.66988e-08
-0.00864457
3.28533e-08
-0.00864463
0.133419
4.18532e-08
-0.00838913
0.133419
4.23239e-08
-0.00838915
0.133419
4.22468e-08
-0.00838918
0.133419
4.23685e-08
-0.00838922
0.133419
4.16892e-08
-0.00838926
0.133419
4.0987e-08
-0.0083893
0.133419
3.96443e-08
-0.00838934
0.133419
3.80329e-08
-0.00838938
0.133419
3.60264e-08
-0.00838943
3.25755e-08
-0.0083895
0.139089
4.01749e-08
-0.00811009
0.139089
4.06115e-08
-0.00811011
0.139089
4.05461e-08
-0.00811014
0.139089
4.06764e-08
-0.00811018
0.139089
4.00693e-08
-0.00811022
0.139089
3.94578e-08
-0.00811026
0.139089
3.82553e-08
-0.00811031
0.139089
3.68233e-08
-0.00811035
0.139089
3.50234e-08
-0.0081104
3.19351e-08
-0.00811047
0.14496
3.82004e-08
-0.007811
0.14496
3.86053e-08
-0.00781102
0.14496
3.85486e-08
-0.00781105
0.14496
3.86863e-08
-0.00781109
0.14496
3.81471e-08
-0.00781114
0.14496
3.7618e-08
-0.00781118
0.14496
3.65486e-08
-0.00781123
0.14496
3.52802e-08
-0.00781127
0.14496
3.36744e-08
-0.00781132
3.0917e-08
-0.0078114
0.151036
3.59174e-08
-0.00749723
0.151036
3.62928e-08
-0.00749725
0.151036
3.62419e-08
-0.00749729
0.151036
3.63855e-08
-0.00749733
0.151036
3.59092e-08
-0.00749737
0.151036
3.54545e-08
-0.00749742
0.151036
3.45108e-08
-0.00749747
0.151036
3.33909e-08
-0.00749751
0.151036
3.1967e-08
-0.00749757
2.95103e-08
-0.00749764
0.157322
3.33119e-08
-0.00717593
0.157322
3.36597e-08
-0.00717595
0.157322
3.36116e-08
-0.00717598
0.157322
3.37599e-08
-0.00717603
0.157322
3.33415e-08
-0.00717607
0.157322
3.29543e-08
-0.00717612
0.157322
3.21289e-08
-0.00717617
0.157322
3.11448e-08
-0.00717622
0.157322
2.98918e-08
-0.00717627
2.77098e-08
-0.00717635
0.163824
3.0371e-08
-0.00685618
0.163824
3.06927e-08
-0.0068562
0.163824
3.06449e-08
-0.00685624
0.163824
3.07965e-08
-0.00685629
0.163824
3.0431e-08
-0.00685634
0.163824
3.01059e-08
-0.00685639
0.163824
2.93918e-08
-0.00685644
0.163824
2.85337e-08
-0.00685649
0.163824
2.7442e-08
-0.00685654
2.55153e-08
-0.00685663
0.170545
2.70816e-08
-0.00654912
0.170545
2.73771e-08
-0.00654914
0.170545
2.73281e-08
-0.00654918
0.170545
2.74815e-08
-0.00654923
0.170545
2.71644e-08
-0.00654928
0.170545
2.68983e-08
-0.00654933
0.170545
2.62888e-08
-0.00654938
0.170545
2.55523e-08
-0.00654944
0.170545
2.46149e-08
-0.00654949
2.29344e-08
-0.00654958
0.177492
2.34327e-08
-0.00626775
0.177492
2.37003e-08
-0.00626778
0.177492
2.36501e-08
-0.00626782
0.177492
2.38028e-08
-0.00626787
0.177492
2.3531e-08
-0.00626792
0.177492
2.33226e-08
-0.00626797
0.177492
2.28121e-08
-0.00626803
0.177492
2.21979e-08
-0.00626808
0.177492
2.14108e-08
-0.00626814
1.99806e-08
-0.00626823
0.184668
1.94183e-08
-0.00602668
0.184668
1.96534e-08
-0.0060267
0.184668
1.96033e-08
-0.00602674
0.184668
1.97512e-08
-0.00602679
0.184668
1.9522e-08
-0.00602685
0.184668
1.93723e-08
-0.0060269
0.184668
1.89551e-08
-0.00602696
0.184668
1.84712e-08
-0.00602702
0.184668
1.78326e-08
-0.00602708
1.6674e-08
-0.00602717
0.19208
1.50422e-08
-0.00584164
0.19208
1.52376e-08
-0.00584167
0.19208
1.51912e-08
-0.00584171
0.19208
1.53274e-08
-0.00584176
0.19208
1.51417e-08
-0.00584182
0.19208
1.50508e-08
-0.00584188
0.19208
1.47246e-08
-0.00584194
0.19208
1.43812e-08
-0.005842
0.19208
1.38923e-08
-0.00584206
1.30375e-08
-0.00584215
0.199733
1.03236e-08
-0.00572931
0.199733
1.04693e-08
-0.00572934
0.199733
1.04302e-08
-0.00572939
0.199733
1.05449e-08
-0.00572944
0.199733
1.04017e-08
-0.0057295
0.199733
1.03692e-08
-0.00572956
0.199733
1.01257e-08
-0.00572962
0.199733
9.93801e-09
-0.00572968
0.199733
9.58831e-09
-0.00572975
9.08931e-09
-0.00572984
0.207633
5.29423e-09
-0.00570761
0.207633
5.37855e-09
-0.00570763
0.207633
5.35252e-09
-0.00570768
0.207633
5.43085e-09
-0.00570774
0.207633
5.33873e-09
-0.0057078
0.207633
5.35518e-09
-0.00570786
0.207633
5.20243e-09
-0.00570792
0.207633
5.16797e-09
-0.00570799
0.207633
4.96113e-09
-0.00570806
4.8363e-09
-0.00570816
0.215784
-0.00579697
0.215784
-0.005797
0.215784
-0.00579705
0.215784
-0.00579711
0.215784
-0.00579717
0.215784
-0.00579723
0.215784
-0.0057973
0.215784
-0.00579737
0.215784
-0.00579744
-0.00579754
0.0132417
4.72565e-09
-0.00342397
0.0132417
5.24513e-09
-0.00342397
0.0132417
6.56438e-09
-0.00342397
0.0132417
5.68015e-09
-0.00342398
0.0132417
6.12202e-09
-0.00342398
0.0132417
4.70601e-09
-0.00342399
0.0132417
4.86876e-09
-0.00342399
0.0132417
2.7225e-09
-0.003424
0.0132417
2.53821e-09
-0.003424
-1.73831e-09
-0.00342401
0.0177634
8.53946e-09
-0.00441008
0.0177634
9.62962e-09
-0.00441008
0.0177634
1.17035e-08
-0.00441009
0.0177634
1.06242e-08
-0.00441009
0.0177634
1.13464e-08
-0.0044101
0.0177634
9.2328e-09
-0.0044101
0.0177634
9.30033e-09
-0.00441011
0.0177634
5.90528e-09
-0.00441011
0.0177634
5.11722e-09
-0.00441012
-2.32495e-09
-0.00441013
0.020694
1.17763e-08
-0.00497492
0.020694
1.32273e-08
-0.00497492
0.020694
1.56955e-08
-0.00497492
0.020694
1.46194e-08
-0.00497493
0.020694
1.55476e-08
-0.00497494
0.020694
1.3013e-08
-0.00497494
0.020694
1.29565e-08
-0.00497495
0.020694
8.70675e-09
-0.00497496
0.020694
7.35211e-09
-0.00497496
-2.60988e-09
-0.00497498
0.0231097
1.45516e-08
-0.00539739
0.0231097
1.62226e-08
-0.00539739
0.0231097
1.88368e-08
-0.0053974
0.0231097
1.78184e-08
-0.00539741
0.0231097
1.88465e-08
-0.00539741
0.0231097
1.60018e-08
-0.00539742
0.0231097
1.57764e-08
-0.00539743
0.0231097
1.08645e-08
-0.00539743
0.0231097
8.96063e-09
-0.00539744
-2.94431e-09
-0.00539746
0.025294
1.69302e-08
-0.0057499
0.025294
1.87328e-08
-0.0057499
0.025294
2.13345e-08
-0.00574991
0.0252939
2.03851e-08
-0.00574991
0.0252939
2.14237e-08
-0.00574992
0.0252939
1.833e-08
-0.00574993
0.0252939
1.78929e-08
-0.00574994
0.0252939
1.24366e-08
-0.00574995
0.0252939
9.99045e-09
-0.00574995
-3.39508e-09
-0.00574997
0.0273689
1.89566e-08
-0.00606204
0.0273689
2.0834e-08
-0.00606205
0.0273689
2.33226e-08
-0.00606205
0.0273689
2.24388e-08
-0.00606206
0.0273689
2.34159e-08
-0.00606207
0.0273689
2.01186e-08
-0.00606208
0.0273689
1.94374e-08
-0.00606208
0.0273689
1.35235e-08
-0.00606209
0.0273689
1.05473e-08
-0.0060621
-3.95403e-09
-0.00606212
0.0293976
2.06729e-08
-0.00634818
0.0293976
2.25861e-08
-0.00634818
0.0293976
2.48981e-08
-0.00634819
0.0293976
2.40711e-08
-0.0063482
0.0293976
2.49315e-08
-0.00634821
0.0293976
2.1467e-08
-0.00634822
0.0293976
2.05199e-08
-0.00634822
0.0293976
1.42221e-08
-0.00634823
0.0293976
1.0737e-08
-0.00634824
-4.58776e-09
-0.00634826
0.0314169
2.21174e-08
-0.00661606
0.0314169
2.40389e-08
-0.00661607
0.0314169
2.61358e-08
-0.00661607
0.0314169
2.5356e-08
-0.00661608
0.0314169
2.60576e-08
-0.00661609
0.0314169
2.24572e-08
-0.0066161
0.0314169
2.1232e-08
-0.00661611
0.0314169
1.46167e-08
-0.00661612
0.0314169
1.06533e-08
-0.00661613
-5.25588e-09
-0.00661615
0.0334508
2.33276e-08
-0.00687016
0.0334508
2.5237e-08
-0.00687017
0.0334508
2.70973e-08
-0.00687018
0.0334508
2.63558e-08
-0.00687018
0.0334508
2.68684e-08
-0.00687019
0.0334508
2.31606e-08
-0.0068702
0.0334508
2.16527e-08
-0.00687022
0.0334508
1.47823e-08
-0.00687023
0.0334508
1.03786e-08
-0.00687024
-5.91684e-09
-0.00687026
0.035516
2.43387e-08
-0.00711315
0.035516
2.62208e-08
-0.00711315
0.0355159
2.78357e-08
-0.00711316
0.0355159
2.71251e-08
-0.00711317
0.0355159
2.74281e-08
-0.00711318
0.0355159
2.36395e-08
-0.00711319
0.0355159
2.18516e-08
-0.0071132
0.0355159
1.4785e-08
-0.00711321
0.0355159
9.98464e-09
-0.00711322
-6.53039e-09
-0.00711324
0.0376248
2.5184e-08
-0.00734659
0.0376248
2.70276e-08
-0.00734659
0.0376248
2.83974e-08
-0.0073466
0.0376248
2.7712e-08
-0.00734661
0.0376248
2.77938e-08
-0.00734662
0.0376248
2.39497e-08
-0.00734664
0.0376248
2.18904e-08
-0.00734665
0.0376248
1.46841e-08
-0.00734666
0.0376248
9.53468e-09
-0.00734667
-7.05854e-09
-0.00734669
0.0397872
2.58948e-08
-0.00757138
0.0397872
2.76919e-08
-0.00757139
0.0397872
2.88237e-08
-0.0075714
0.0397872
2.81597e-08
-0.00757141
0.0397872
2.80159e-08
-0.00757142
0.0397872
2.4141e-08
-0.00757143
0.0397872
2.18244e-08
-0.00757145
0.0397872
1.45323e-08
-0.00757146
0.0397872
9.08423e-09
-0.00757147
-7.46615e-09
-0.0075715
0.0420112
2.65005e-08
-0.00778794
0.0420112
2.82451e-08
-0.00778795
0.0420112
2.91514e-08
-0.00778796
0.0420112
2.85069e-08
-0.00778797
0.0420112
2.81403e-08
-0.00778798
0.0420112
2.42583e-08
-0.007788
0.0420112
2.17034e-08
-0.00778801
0.0420112
1.43767e-08
-0.00778802
0.0420112
8.68207e-09
-0.00778804
-7.72115e-09
-0.00778806
0.044304
2.70279e-08
-0.00799634
0.044304
2.87162e-08
-0.00799635
0.044304
2.94133e-08
-0.00799636
0.044304
2.87883e-08
-0.00799637
0.044304
2.82075e-08
-0.00799639
0.044304
2.43422e-08
-0.0079964
0.044304
2.15722e-08
-0.00799641
0.044304
1.42595e-08
-0.00799643
0.044304
8.3708e-09
-0.00799644
-7.79477e-09
-0.00799647
0.0466718
2.75012e-08
-0.00819641
0.0466718
2.91308e-08
-0.00819641
0.0466718
2.96383e-08
-0.00819642
0.0466718
2.90345e-08
-0.00819644
0.0466718
2.82543e-08
-0.00819645
0.0466718
2.44287e-08
-0.00819647
0.0466718
2.1471e-08
-0.00819648
0.0466718
1.42179e-08
-0.0081965
0.0466718
8.1876e-09
-0.00819651
-7.66148e-09
-0.00819654
0.0491203
2.79413e-08
-0.00838775
0.0491203
2.95112e-08
-0.00838775
0.0491203
2.98512e-08
-0.00838777
0.0491203
2.92726e-08
-0.00838778
0.0491203
2.83128e-08
-0.0083878
0.0491203
2.45502e-08
-0.00838781
0.0491203
2.14356e-08
-0.00838783
0.0491203
1.42847e-08
-0.00838784
0.0491203
8.16472e-09
-0.00838786
-7.29903e-09
-0.00838789
0.0516548
2.83659e-08
-0.00856982
0.0516548
2.9876e-08
-0.00856983
0.0516548
3.00731e-08
-0.00856984
0.0516548
2.9526e-08
-0.00856986
0.0516548
2.84118e-08
-0.00856987
0.0516548
2.47353e-08
-0.00856989
0.0516548
2.14982e-08
-0.00856991
0.0516548
1.44889e-08
-0.00856993
0.0516548
8.32997e-09
-0.00856994
-6.68871e-09
-0.00856997
0.0542806
2.87883e-08
-0.00874195
0.0542806
3.02396e-08
-0.00874196
0.0542806
3.03209e-08
-0.00874197
0.0542806
2.98147e-08
-0.00874198
0.0542806
2.85763e-08
-0.008742
0.0542806
2.50092e-08
-0.00874202
0.0542806
2.16868e-08
-0.00874204
0.0542806
1.48551e-08
-0.00874206
0.0542806
8.70664e-09
-0.00874207
-5.81623e-09
-0.00874211
0.0570026
2.92178e-08
-0.00890331
0.0570026
3.06121e-08
-0.00890332
0.0570026
3.06081e-08
-0.00890333
0.0570026
3.01554e-08
-0.00890335
0.0570026
2.88277e-08
-0.00890337
0.0570026
2.53927e-08
-0.00890339
0.0570026
2.2024e-08
-0.0089034
0.0570026
1.54015e-08
-0.00890342
0.0570026
9.31075e-09
-0.00890344
-4.67536e-09
-0.00890348
0.0598255
2.96596e-08
-0.009053
0.0598255
3.10005e-08
-0.009053
0.0598255
3.09453e-08
-0.00905302
0.0598255
3.05607e-08
-0.00905304
0.0598255
2.91802e-08
-0.00905306
0.0598255
2.5897e-08
-0.00905308
0.0598255
2.25202e-08
-0.0090531
0.0598255
1.61327e-08
-0.00905312
0.0598255
1.01442e-08
-0.00905314
-3.27569e-09
-0.00905317
0.0627543
3.01201e-08
-0.00918999
0.0627543
3.14124e-08
-0.00919
0.0627543
3.13331e-08
-0.00919001
0.0627543
3.10242e-08
-0.00919003
0.0627543
2.962e-08
-0.00919005
0.0627543
2.65014e-08
-0.00919007
0.0627543
2.31493e-08
-0.00919009
0.0627543
1.70168e-08
-0.00919012
0.0627543
1.11687e-08
-0.00919014
-1.6635e-09
-0.00919017
0.0657936
3.06091e-08
-0.00931319
0.0657936
3.18486e-08
-0.0093132
0.0657936
3.17461e-08
-0.00931322
0.0657936
3.15031e-08
-0.00931324
0.0657936
3.00869e-08
-0.00931326
0.0657936
2.71375e-08
-0.00931328
0.0657936
2.38309e-08
-0.0093133
0.0657936
1.79698e-08
-0.00931332
0.0657936
1.22867e-08
-0.00931335
6.3002e-11
-0.00931338
0.0689481
3.11234e-08
-0.00942142
0.0689481
3.23077e-08
-0.00942143
0.0689481
3.21813e-08
-0.00942144
0.0689481
3.19903e-08
-0.00942146
0.0689481
3.05681e-08
-0.00942149
0.0689481
2.77857e-08
-0.00942151
0.0689481
2.45394e-08
-0.00942153
0.0689481
1.89592e-08
-0.00942155
0.0689481
1.34602e-08
-0.00942158
1.85567e-09
-0.00942162
0.0722227
3.16559e-08
-0.00951342
0.0722227
3.27841e-08
-0.00951343
0.0722227
3.26363e-08
-0.00951344
0.0722227
3.24863e-08
-0.00951347
0.0722227
3.10649e-08
-0.00951349
0.0722227
2.84454e-08
-0.00951351
0.0722227
2.52726e-08
-0.00951354
0.0722227
1.99789e-08
-0.00951356
0.0722227
1.46797e-08
-0.00951359
3.6971e-09
-0.00951363
0.0756221
3.22005e-08
-0.00958788
0.0756221
3.32725e-08
-0.00958789
0.0756221
3.31068e-08
-0.00958791
0.0756221
3.29898e-08
-0.00958793
0.0756221
3.15783e-08
-0.00958796
0.0756221
2.91189e-08
-0.00958798
0.0756221
2.60327e-08
-0.00958801
0.0756221
2.10295e-08
-0.00958803
0.0756221
1.59436e-08
-0.00958806
5.58059e-09
-0.0095881
0.0791511
3.27521e-08
-0.00964345
0.0791511
3.37681e-08
-0.00964346
0.0791511
3.35893e-08
-0.00964348
0.0791511
3.35002e-08
-0.0096435
0.0791511
3.21079e-08
-0.00964353
0.0791511
2.98059e-08
-0.00964356
0.0791511
2.68192e-08
-0.00964358
0.0791511
2.21082e-08
-0.00964361
0.0791511
1.72479e-08
-0.00964364
7.50053e-09
-0.00964368
0.0828146
3.32994e-08
-0.00967874
0.0828146
3.42605e-08
-0.00967875
0.0828146
3.40736e-08
-0.00967877
0.0828146
3.40087e-08
-0.00967879
0.0828145
3.26456e-08
-0.00967882
0.0828145
3.04984e-08
-0.00967885
0.0828145
2.7623e-08
-0.00967887
0.0828145
2.32044e-08
-0.0096789
0.0828145
1.85802e-08
-0.00967893
9.44258e-09
-0.00967898
0.0866173
3.38269e-08
-0.00969233
0.0866173
3.47346e-08
-0.00969234
0.0866173
3.45451e-08
-0.00969237
0.0866173
3.45019e-08
-0.00969239
0.0866173
3.31778e-08
-0.00969242
0.0866173
3.11828e-08
-0.00969245
0.0866173
2.84301e-08
-0.00969248
0.0866173
2.43026e-08
-0.00969251
0.0866173
1.99232e-08
-0.00969254
1.13873e-08
-0.00969258
0.0905644
3.43175e-08
-0.00968285
0.0905644
3.51734e-08
-0.00968286
0.0905644
3.49865e-08
-0.00968288
0.0905644
3.49635e-08
-0.00968291
0.0905644
3.36878e-08
-0.00968294
0.0905644
3.18427e-08
-0.00968296
0.0905644
2.92225e-08
-0.00968299
0.0905644
2.53835e-08
-0.00968303
0.0905644
2.12555e-08
-0.00968306
1.33113e-08
-0.00968311
0.0946608
3.4751e-08
-0.00964892
0.0946608
3.55569e-08
-0.00964893
0.0946608
3.53774e-08
-0.00964895
0.0946608
3.5374e-08
-0.00964898
0.0946608
3.41552e-08
-0.00964901
0.0946608
3.24574e-08
-0.00964904
0.0946608
2.99783e-08
-0.00964907
0.0946608
2.64236e-08
-0.0096491
0.0946608
2.25517e-08
-0.00964914
1.51871e-08
-0.00964919
0.0989115
3.51064e-08
-0.00958927
0.0989115
3.58641e-08
-0.00958928
0.0989115
3.5696e-08
-0.00958931
0.0989115
3.57116e-08
-0.00958933
0.0989115
3.45573e-08
-0.00958937
0.0989115
3.30036e-08
-0.0095894
0.0989115
3.06725e-08
-0.00958943
0.0989115
2.73968e-08
-0.00958946
0.0989115
2.37834e-08
-0.0095895
1.69845e-08
-0.00958955
0.103322
3.53602e-08
-0.00950274
0.103322
3.60709e-08
-0.00950276
0.103322
3.59165e-08
-0.00950278
0.103322
3.59512e-08
-0.00950281
0.103322
3.48677e-08
-0.00950284
0.103322
3.34548e-08
-0.00950288
0.103322
3.12771e-08
-0.00950291
0.103322
2.82736e-08
-0.00950294
0.103322
2.49192e-08
-0.00950298
1.86699e-08
-0.00950304
0.107896
3.54832e-08
-0.00938837
0.107896
3.6149e-08
-0.00938838
0.107896
3.60101e-08
-0.00938841
0.107896
3.60626e-08
-0.00938844
0.107896
3.50543e-08
-0.00938847
0.107896
3.37786e-08
-0.00938851
0.107896
3.1758e-08
-0.00938854
0.107896
2.90188e-08
-0.00938858
0.107896
2.59218e-08
-0.00938861
2.02033e-08
-0.00938867
0.112641
3.54501e-08
-0.00924543
0.112641
3.6073e-08
-0.00924545
0.112641
3.59511e-08
-0.00924547
0.112641
3.60205e-08
-0.00924551
0.112641
3.50899e-08
-0.00924554
0.112641
3.39457e-08
-0.00924558
0.112641
3.2083e-08
-0.00924561
0.112641
2.95984e-08
-0.00924565
0.112641
2.67546e-08
-0.00924569
2.15457e-08
-0.00924575
0.11756
3.52447e-08
-0.00907358
0.11756
3.58265e-08
-0.0090736
0.11756
3.57221e-08
-0.00907363
0.11756
3.58075e-08
-0.00907366
0.11756
3.49558e-08
-0.0090737
0.11756
3.39364e-08
-0.00907373
0.11756
3.22305e-08
-0.00907377
0.11756
2.99881e-08
-0.00907381
0.11756
2.7391e-08
-0.00907385
2.26671e-08
-0.00907391
0.122659
3.48495e-08
-0.00887295
0.122659
3.53922e-08
-0.00887296
0.122659
3.53049e-08
-0.00887299
0.122659
3.54051e-08
-0.00887303
0.122659
3.46321e-08
-0.00887307
0.122659
3.37302e-08
-0.0088731
0.122659
3.21784e-08
-0.00887314
0.122659
3.01643e-08
-0.00887318
0.122659
2.78054e-08
-0.00887323
2.35391e-08
-0.00887329
0.127944
3.42446e-08
-0.00864428
0.127944
3.475e-08
-0.00864429
0.127944
3.46786e-08
-0.00864432
0.127944
3.4792e-08
-0.00864436
0.127944
3.40961e-08
-0.0086444
0.127944
3.33036e-08
-0.00864444
0.127944
3.19014e-08
-0.00864448
0.127944
3.01004e-08
-0.00864452
0.127944
2.79693e-08
-0.00864457
2.41304e-08
-0.00864463
0.133419
3.34109e-08
-0.00838913
0.133419
3.3881e-08
-0.00838915
0.133419
3.38233e-08
-0.00838918
0.133419
3.39483e-08
-0.00838922
0.133419
3.33266e-08
-0.00838926
0.133419
3.26346e-08
-0.0083893
0.133419
3.13765e-08
-0.00838934
0.133419
2.97721e-08
-0.00838938
0.133419
2.78571e-08
-0.00838943
2.44133e-08
-0.0083895
0.139089
3.23338e-08
-0.00811009
0.139089
3.27706e-08
-0.00811011
0.139089
3.27238e-08
-0.00811014
0.139089
3.28582e-08
-0.00811018
0.139089
3.23067e-08
-0.00811022
0.139089
3.17057e-08
-0.00811026
0.139089
3.05847e-08
-0.00811031
0.139089
2.91595e-08
-0.00811035
0.139089
2.74478e-08
-0.0081104
2.43654e-08
-0.00811047
0.14496
3.09944e-08
-0.007811
0.14496
3.13999e-08
-0.00781102
0.14496
3.13609e-08
-0.00781105
0.14496
3.1503e-08
-0.00781109
0.14496
3.10168e-08
-0.00781113
0.14496
3.04976e-08
-0.00781118
0.14496
2.95063e-08
-0.00781122
0.14496
2.82435e-08
-0.00781127
0.14496
2.67219e-08
-0.00781132
2.39677e-08
-0.00781139
0.151036
2.9376e-08
-0.00749723
0.151036
2.97521e-08