/*--------------------------------*- C++ -*----------------------------------*\
| =========                 |                                                 |
| \\      /  F ield         | foam-extend: Open Source CFD                    |
|  \\    /   O peration     | Version:     3.2                                |
|   \\  /    A nd           | Web:         http://www.foam-extend.org         |
|    \\/     M anipulation  | For copyright notice see file Copyright         |
\*---------------------------------------------------------------------------*/
FoamFile
{
    version     2.0;
    format      ascii;
    class       volVectorField;
    location    "1500000";
    object      U;
}
// * * * * * * * * * * * * * * * * * * * * * * * * * * * * * * * * * * * * * //

dimensions      [0 1 -1 0 0 0 0];

internalField   nonuniform List<vector> 
5000
(
(6.5214 1.68626 2.18299e-07)
(6.5214 1.68626 2.41313e-07)
(6.52139 1.68627 3.28739e-07)
(6.52139 1.68627 2.46603e-07)
(6.52139 1.68627 2.76601e-07)
(6.52139 1.68627 1.6702e-07)
(6.52138 1.68627 1.89742e-07)
(6.52139 1.68628 3.82303e-08)
(6.52138 1.68628 4.56277e-08)
(6.52139 1.68628 -1.90647e-07)
(8.42038 2.09051 5.21031e-07)
(8.42038 2.09051 6.16381e-07)
(8.42038 2.09051 7.85375e-07)
(8.42038 2.09051 6.81064e-07)
(8.42037 2.09052 7.3825e-07)
(8.42037 2.09052 5.52779e-07)
(8.42037 2.09052 5.67975e-07)
(8.42037 2.09052 2.68805e-07)
(8.42037 2.09053 2.27155e-07)
(8.42037 2.09053 -3.60413e-07)
(9.44194 2.26987 8.33329e-07)
(9.44193 2.26987 9.72896e-07)
(9.44193 2.26988 1.19966e-06)
(9.44193 2.26988 1.0865e-06)
(9.44193 2.26988 1.1714e-06)
(9.44193 2.26988 9.28086e-07)
(9.44192 2.26989 9.33328e-07)
(9.44193 2.26989 5.30881e-07)
(9.44192 2.26989 4.27283e-07)
(9.44192 2.2699 -4.4745e-07)
(10.1489 2.37033 1.10275e-06)
(10.1489 2.37033 1.2716e-06)
(10.1489 2.37034 1.52232e-06)
(10.1489 2.37034 1.42024e-06)
(10.1489 2.37034 1.52161e-06)
(10.1489 2.37035 1.24923e-06)
(10.1489 2.37035 1.24126e-06)
(10.1489 2.37035 7.68441e-07)
(10.1489 2.37036 6.11111e-07)
(10.1489 2.37036 -4.88635e-07)
(10.6918 2.4305 1.36866e-06)
(10.6918 2.4305 1.55275e-06)
(10.6918 2.4305 1.8111e-06)
(10.6918 2.43051 1.7162e-06)
(10.6918 2.43051 1.82483e-06)
(10.6918 2.43051 1.52399e-06)
(10.6918 2.43052 1.49746e-06)
(10.6918 2.43052 9.64801e-07)
(10.6918 2.43052 7.50938e-07)
(10.6918 2.43053 -5.20727e-07)
(11.1353 2.46641 1.60853e-06)
(11.1353 2.46641 1.8022e-06)
(11.1353 2.46641 2.05547e-06)
(11.1353 2.46641 1.9703e-06)
(11.1353 2.46642 2.07813e-06)
(11.1353 2.46642 1.75749e-06)
(11.1353 2.46642 1.70937e-06)
(11.1353 2.46643 1.12862e-06)
(11.1353 2.46643 8.60978e-07)
(11.1353 2.46644 -5.41297e-07)
(11.5124 2.48602 1.83707e-06)
(11.5124 2.48602 2.03426e-06)
(11.5124 2.48602 2.27481e-06)
(11.5124 2.48603 2.19653e-06)
(11.5124 2.48603 2.29723e-06)
(11.5124 2.48603 1.95891e-06)
(11.5124 2.48604 1.88596e-06)
(11.5124 2.48604 1.26414e-06)
(11.5124 2.48605 9.43538e-07)
(11.5124 2.48605 -5.56465e-07)
(11.8421 2.49382 2.0466e-06)
(11.8421 2.49382 2.24452e-06)
(11.8421 2.49382 2.46746e-06)
(11.8421 2.49383 2.3956e-06)
(11.8421 2.49383 2.48424e-06)
(11.8421 2.49383 2.13241e-06)
(11.8421 2.49384 2.03315e-06)
(11.8421 2.49384 1.37772e-06)
(11.8421 2.49384 1.00747e-06)
(11.8421 2.49385 -5.6354e-07)
(12.1362 2.49254 2.24355e-06)
(12.1362 2.49254 2.4393e-06)
(12.1362 2.49255 2.64142e-06)
(12.1362 2.49255 2.57428e-06)
(12.1362 2.49255 2.64707e-06)
(12.1362 2.49256 2.28408e-06)
(12.1362 2.49256 2.15733e-06)
(12.1362 2.49256 1.4744e-06)
(12.1362 2.49257 1.05777e-06)
(12.1362 2.49257 -5.62349e-07)
(12.4025 2.48397 2.42615e-06)
(12.4025 2.48397 2.61821e-06)
(12.4025 2.48398 2.79797e-06)
(12.4025 2.48398 2.73473e-06)
(12.4025 2.48398 2.78896e-06)
(12.4025 2.48399 2.41759e-06)
(12.4025 2.48399 2.26321e-06)
(12.4025 2.484 1.5589e-06)
(12.4025 2.484 1.1002e-06)
(12.4025 2.48401 -5.50666e-07)
(12.6465 2.46934 2.59772e-06)
(12.6465 2.46934 2.78468e-06)
(12.6465 2.46934 2.94126e-06)
(12.6465 2.46935 2.8809e-06)
(12.6465 2.46935 2.91466e-06)
(12.6465 2.46936 2.53723e-06)
(12.6465 2.46936 2.35554e-06)
(12.6465 2.46936 1.63547e-06)
(12.6465 2.46937 1.13922e-06)
(12.6465 2.46938 -5.26953e-07)
(12.8721 2.44952 2.75852e-06)
(12.8721 2.44952 2.93958e-06)
(12.8721 2.44952 3.07312e-06)
(12.8721 2.44952 3.01507e-06)
(12.8721 2.44953 3.02729e-06)
(12.8721 2.44953 2.64619e-06)
(12.8721 2.44954 2.43819e-06)
(12.8721 2.44954 1.70782e-06)
(12.8721 2.44954 1.17898e-06)
(12.8721 2.44955 -4.89302e-07)
(13.0822 2.42515 2.91058e-06)
(13.0822 2.42515 3.08512e-06)
(13.0822 2.42515 3.19621e-06)
(13.0822 2.42515 3.13997e-06)
(13.0822 2.42516 3.13025e-06)
(13.0822 2.42516 2.74773e-06)
(13.0822 2.42517 2.51487e-06)
(13.0822 2.42517 1.77932e-06)
(13.0822 2.42517 1.22299e-06)
(13.0822 2.42518 -4.36085e-07)
(13.2791 2.39671 3.05475e-06)
(13.2791 2.39672 3.2225e-06)
(13.2791 2.39672 3.31227e-06)
(13.2791 2.39672 3.25767e-06)
(13.2791 2.39673 3.22625e-06)
(13.2791 2.39673 2.84456e-06)
(13.2791 2.39674 2.58876e-06)
(13.2791 2.39674 1.85292e-06)
(13.2791 2.39674 1.27431e-06)
(13.2791 2.39675 -3.65726e-07)
(13.4645 2.3646 3.19243e-06)
(13.4645 2.36461 3.35327e-06)
(13.4645 2.36461 3.42319e-06)
(13.4645 2.36461 3.37022e-06)
(13.4645 2.36462 3.31792e-06)
(13.4645 2.36462 2.93925e-06)
(13.4645 2.36462 2.66284e-06)
(13.4645 2.36463 1.9313e-06)
(13.4645 2.36463 1.33559e-06)
(13.4645 2.36464 -2.76838e-07)
(13.6397 2.32911 3.32447e-06)
(13.6397 2.32911 3.47852e-06)
(13.6397 2.32912 3.53039e-06)
(13.6397 2.32912 3.47929e-06)
(13.6397 2.32912 3.40748e-06)
(13.6397 2.32913 3.03401e-06)
(13.6397 2.32913 2.73967e-06)
(13.6397 2.32914 2.01676e-06)
(13.6397 2.32914 1.4091e-06)
(13.6397 2.32915 -1.682e-07)
(13.8059 2.29048 3.45177e-06)
(13.8059 2.29048 3.59932e-06)
(13.8059 2.29049 3.6352e-06)
(13.8059 2.29049 3.58646e-06)
(13.8059 2.29049 3.497e-06)
(13.8059 2.2905 3.13092e-06)
(13.8059 2.2905 2.82163e-06)
(13.8059 2.29051 2.11138e-06)
(13.8059 2.29051 1.4968e-06)
(13.8059 2.29052 -3.87401e-08)
(13.964 2.24891 3.5749e-06)
(13.964 2.24892 3.71644e-06)
(13.964 2.24892 3.73865e-06)
(13.964 2.24892 3.69298e-06)
(13.964 2.24893 3.5882e-06)
(13.964 2.24893 3.23169e-06)
(13.964 2.24894 2.91071e-06)
(13.964 2.24894 2.21691e-06)
(13.964 2.24895 1.60026e-06)
(13.964 2.24895 1.12322e-07)
(14.1146 2.20458 3.69426e-06)
(14.1146 2.20458 3.83051e-06)
(14.1146 2.20459 3.84169e-06)
(14.1146 2.20459 3.80011e-06)
(14.1146 2.20459 3.68279e-06)
(14.1146 2.2046 3.33801e-06)
(14.1146 2.2046 3.00882e-06)
(14.1146 2.20461 2.33488e-06)
(14.1146 2.20461 1.7208e-06)
(14.1146 2.20462 2.85466e-07)
(14.2584 2.15763 3.80991e-06)
(14.2584 2.15763 3.94183e-06)
(14.2584 2.15763 3.94483e-06)
(14.2584 2.15764 3.90853e-06)
(14.2584 2.15764 3.78165e-06)
(14.2584 2.15765 3.45066e-06)
(14.2584 2.15765 3.11675e-06)
(14.2584 2.15766 2.46573e-06)
(14.2584 2.15766 1.85856e-06)
(14.2584 2.15767 4.80017e-07)
(14.3959 2.10819 3.92164e-06)
(14.3959 2.10819 4.05048e-06)
(14.3959 2.10819 4.04839e-06)
(14.3959 2.1082 4.0186e-06)
(14.3959 2.1082 3.88516e-06)
(14.3959 2.10821 3.56962e-06)
(14.3959 2.10821 3.23422e-06)
(14.3959 2.10822 2.60853e-06)
(14.3959 2.10822 2.01202e-06)
(14.3959 2.10823 6.93309e-07)
(14.5274 2.05638 4.02885e-06)
(14.5274 2.05638 4.1544e-06)
(14.5274 2.05638 4.14852e-06)
(14.5274 2.05639 4.12515e-06)
(14.5274 2.05639 3.98725e-06)
(14.5274 2.0564 3.68805e-06)
(14.5274 2.0564 3.35386e-06)
(14.5274 2.05641 2.75529e-06)
(14.5274 2.05641 2.17259e-06)
(14.5274 2.05642 9.15786e-07)
(14.6533 2.00231 4.13078e-06)
(14.6533 2.00231 4.252e-06)
(14.6533 2.00231 4.24234e-06)
(14.6533 2.00232 4.22418e-06)
(14.6533 2.00232 4.08303e-06)
(14.6533 2.00233 3.80025e-06)
(14.6533 2.00233 3.46944e-06)
(14.6533 2.00233 2.89914e-06)
(14.6533 2.00234 2.33288e-06)
(14.6533 2.00235 1.13923e-06)
(14.774 1.94608 4.22658e-06)
(14.774 1.94608 4.34298e-06)
(14.774 1.94609 4.33e-06)
(14.774 1.94609 4.31609e-06)
(14.774 1.94609 4.17286e-06)
(14.774 1.9461 3.90633e-06)
(14.774 1.9461 3.58075e-06)
(14.774 1.94611 3.03935e-06)
(14.774 1.94611 2.49165e-06)
(14.774 1.94612 1.36145e-06)
(14.8896 1.8878 4.31545e-06)
(14.8896 1.88781 4.42663e-06)
(14.8896 1.88781 4.41083e-06)
(14.8896 1.88781 4.40037e-06)
(14.8896 1.88782 4.25626e-06)
(14.8896 1.88782 4.00557e-06)
(14.8896 1.88783 3.68683e-06)
(14.8896 1.88783 3.17457e-06)
(14.8896 1.88784 2.64714e-06)
(14.8896 1.88785 1.58019e-06)
(15.0003 1.82758 4.39645e-06)
(15.0003 1.82758 4.50229e-06)
(15.0003 1.82759 4.48448e-06)
(15.0003 1.82759 4.47697e-06)
(15.0003 1.8276 4.3333e-06)
(15.0003 1.8276 4.09813e-06)
(15.0003 1.8276 3.78774e-06)
(15.0003 1.82761 3.30464e-06)
(15.0003 1.82762 2.79881e-06)
(15.0003 1.82762 1.79458e-06)
(15.1064 1.76552 4.46879e-06)
(15.1064 1.76552 4.56922e-06)
(15.1064 1.76553 4.55003e-06)
(15.1064 1.76553 4.54494e-06)
(15.1064 1.76553 4.4029e-06)
(15.1064 1.76554 4.18302e-06)
(15.1064 1.76554 3.88247e-06)
(15.1064 1.76555 3.42856e-06)
(15.1064 1.76555 2.94558e-06)
(15.1064 1.76556 2.00325e-06)
(15.2079 1.70174 4.53119e-06)
(15.2079 1.70174 4.62621e-06)
(15.2079 1.70174 4.60622e-06)
(15.2079 1.70175 4.60326e-06)
(15.2079 1.70175 4.46407e-06)
(15.2079 1.70176 4.25926e-06)
(15.2079 1.70176 3.9699e-06)
(15.2079 1.70177 3.54505e-06)
(15.2079 1.70177 3.08594e-06)
(15.2079 1.70178 2.20453e-06)
(15.3049 1.63635 4.58248e-06)
(15.3049 1.63635 4.67215e-06)
(15.3049 1.63636 4.65192e-06)
(15.3049 1.63636 4.65085e-06)
(15.3049 1.63637 4.5156e-06)
(15.3049 1.63637 4.32561e-06)
(15.3049 1.63638 4.04866e-06)
(15.3049 1.63638 3.65263e-06)
(15.3049 1.63639 3.21822e-06)
(15.3049 1.6364 2.39662e-06)
(15.3976 1.5695 4.62098e-06)
(15.3976 1.56951 4.70541e-06)
(15.3976 1.56951 4.68547e-06)
(15.3976 1.56951 4.68613e-06)
(15.3976 1.56952 4.55586e-06)
(15.3976 1.56952 4.38043e-06)
(15.3976 1.56953 4.11694e-06)
(15.3976 1.56953 3.74934e-06)
(15.3976 1.56954 3.34022e-06)
(15.3976 1.56955 2.57715e-06)
(15.486 1.50134 4.64515e-06)
(15.486 1.50134 4.7245e-06)
(15.486 1.50135 4.7053e-06)
(15.486 1.50135 4.70759e-06)
(15.486 1.50136 4.58316e-06)
(15.486 1.50136 4.422e-06)
(15.486 1.50137 4.17283e-06)
(15.486 1.50137 3.83315e-06)
(15.486 1.50138 3.4497e-06)
(15.4861 1.50138 2.74373e-06)
(15.5702 1.43203 4.65329e-06)
(15.5702 1.43203 4.7277e-06)
(15.5702 1.43204 4.70962e-06)
(15.5702 1.43204 4.71347e-06)
(15.5702 1.43205 4.59562e-06)
(15.5702 1.43205 4.44838e-06)
(15.5702 1.43206 4.21418e-06)
(15.5702 1.43206 3.90179e-06)
(15.5702 1.43207 3.54418e-06)
(15.5702 1.43208 2.89373e-06)
(15.6502 1.36177 4.64348e-06)
(15.6502 1.36177 4.71312e-06)
(15.6502 1.36178 4.69646e-06)
(15.6502 1.36178 4.70182e-06)
(15.6502 1.36178 4.59117e-06)
(15.6502 1.36179 4.45746e-06)
(15.6502 1.36179 4.23872e-06)
(15.6502 1.3618 3.95285e-06)
(15.6502 1.36181 3.62103e-06)
(15.6502 1.36181 3.02431e-06)
(15.726 1.29078 4.61334e-06)
(15.726 1.29078 4.67841e-06)
(15.726 1.29078 4.66339e-06)
(15.726 1.29079 4.67019e-06)
(15.726 1.29079 4.56717e-06)
(15.726 1.2908 4.44653e-06)
(15.726 1.2908 4.24353e-06)
(15.726 1.29081 3.98325e-06)
(15.726 1.29081 3.67695e-06)
(15.726 1.29082 3.13194e-06)
(15.7977 1.2193 4.56141e-06)
(15.7977 1.21931 4.62209e-06)
(15.7977 1.21931 4.60879e-06)
(15.7977 1.21932 4.61697e-06)
(15.7977 1.21932 4.5218e-06)
(15.7977 1.21932 4.41363e-06)
(15.7977 1.21933 4.22641e-06)
(15.7977 1.21934 3.99062e-06)
(15.7977 1.21934 3.70933e-06)
(15.7977 1.21935 3.21374e-06)
(15.8651 1.14765 4.48635e-06)
(15.8651 1.14766 4.54286e-06)
(15.8651 1.14766 4.53131e-06)
(15.8651 1.14767 4.54077e-06)
(15.8651 1.14767 4.45357e-06)
(15.8651 1.14768 4.35723e-06)
(15.8651 1.14768 4.18566e-06)
(15.8651 1.14769 3.97311e-06)
(15.8651 1.14769 3.71614e-06)
(15.8651 1.1477 3.2674e-06)
(15.9284 1.07617 4.38668e-06)
(15.9284 1.07617 4.43922e-06)
(15.9284 1.07618 4.42934e-06)
(15.9284 1.07618 4.43998e-06)
(15.9284 1.07619 4.36068e-06)
(15.9284 1.07619 4.27546e-06)
(15.9284 1.0762 4.11924e-06)
(15.9284 1.0762 3.92854e-06)
(15.9284 1.07621 3.69503e-06)
(15.9284 1.07622 3.29032e-06)
(15.9875 1.00526 4.26066e-06)
(15.9875 1.00527 4.30946e-06)
(15.9875 1.00527 4.3011e-06)
(15.9875 1.00527 4.31281e-06)
(15.9875 1.00528 4.24124e-06)
(15.9875 1.00528 4.16635e-06)
(15.9875 1.00529 4.02505e-06)
(15.9875 1.00529 3.85469e-06)
(15.9875 1.0053 3.64361e-06)
(15.9875 1.00531 3.27993e-06)
(16.0423 0.935403 4.10703e-06)
(16.0423 0.935405 4.1523e-06)
(16.0423 0.935409 4.14524e-06)
(16.0423 0.935414 4.15788e-06)
(16.0423 0.935418 4.09372e-06)
(16.0423 0.935423 4.02834e-06)
(16.0423 0.935428 3.90137e-06)
(16.0423 0.935433 3.74977e-06)
(16.0423 0.935439 3.55995e-06)
(16.0423 0.935447 3.23412e-06)
(16.0928 0.867141 3.92443e-06)
(16.0928 0.867143 3.96642e-06)
(16.0928 0.867147 3.96039e-06)
(16.0928 0.867151 3.97382e-06)
(16.0928 0.867156 3.91668e-06)
(16.0928 0.867161 3.85994e-06)
(16.0928 0.867166 3.74664e-06)
(16.0928 0.867171 3.61216e-06)
(16.0928 0.867177 3.44236e-06)
(16.0928 0.867185 3.15114e-06)
(16.1389 0.801113 3.71158e-06)
(16.1389 0.801115 3.75051e-06)
(16.1389 0.801119 3.74522e-06)
(16.1389 0.801124 3.75932e-06)
(16.1389 0.801129 3.70873e-06)
(16.1389 0.801133 3.65981e-06)
(16.1389 0.801138 3.55946e-06)
(16.1389 0.801144 3.44054e-06)
(16.1389 0.801149 3.28953e-06)
(16.1389 0.801157 3.02981e-06)
(16.1806 0.738042 3.46722e-06)
(16.1806 0.738044 3.50331e-06)
(16.1806 0.738048 3.49843e-06)
(16.1806 0.738052 3.51304e-06)
(16.1806 0.738057 3.46848e-06)
(16.1806 0.738062 3.42659e-06)
(16.1806 0.738067 3.33842e-06)
(16.1806 0.738072 3.23361e-06)
(16.1806 0.738077 3.10017e-06)
(16.1806 0.738086 2.86905e-06)
(16.2177 0.678727 3.18986e-06)
(16.2177 0.67873 3.2233e-06)
(16.2177 0.678733 3.21856e-06)
(16.2177 0.678738 3.23361e-06)
(16.2177 0.678743 3.19459e-06)
(16.2177 0.678747 3.15917e-06)
(16.2177 0.678752 3.08248e-06)
(16.2177 0.678758 2.99071e-06)
(16.2177 0.678763 2.87386e-06)
(16.2177 0.678771 2.66908e-06)
(16.2504 0.624031 2.8784e-06)
(16.2504 0.624033 2.90924e-06)
(16.2504 0.624037 2.90442e-06)
(16.2504 0.624041 2.91968e-06)
(16.2504 0.624046 2.88569e-06)
(16.2504 0.624051 2.85619e-06)
(16.2504 0.624056 2.79025e-06)
(16.2504 0.624061 2.71063e-06)
(16.2504 0.624066 2.60942e-06)
(16.2504 0.624074 2.42931e-06)
(16.2784 0.574837 2.53131e-06)
(16.2784 0.574839 2.55952e-06)
(16.2784 0.574843 2.55455e-06)
(16.2784 0.574848 2.56998e-06)
(16.2784 0.574852 2.54065e-06)
(16.2784 0.574857 2.51706e-06)
(16.2784 0.574862 2.46129e-06)
(16.2784 0.574867 2.39389e-06)
(16.2784 0.574873 2.30791e-06)
(16.2784 0.574881 2.15248e-06)
(16.3018 0.532011 2.14792e-06)
(16.3018 0.532013 2.17313e-06)
(16.3018 0.532017 2.16808e-06)
(16.3018 0.532022 2.18313e-06)
(16.3018 0.532026 2.15821e-06)
(16.3018 0.532031 2.14018e-06)
(16.3018 0.532036 2.09405e-06)
(16.3018 0.532041 2.03881e-06)
(16.3018 0.532047 1.96763e-06)
(16.3018 0.532055 1.83747e-06)
(16.3205 0.49635 1.72773e-06)
(16.3205 0.496352 1.74947e-06)
(16.3205 0.496356 1.74453e-06)
(16.3205 0.49636 1.75907e-06)
(16.3205 0.496365 1.73824e-06)
(16.3205 0.49637 1.72651e-06)
(16.3205 0.496375 1.68938e-06)
(16.3205 0.49638 1.64824e-06)
(16.3205 0.496385 1.59199e-06)
(16.3205 0.496393 1.49131e-06)
(16.3348 0.46856 1.272e-06)
(16.3348 0.468562 1.28918e-06)
(16.3348 0.468566 1.28488e-06)
(16.3348 0.468571 1.29745e-06)
(16.3348 0.468575 1.28128e-06)
(16.3348 0.46858 1.2748e-06)
(16.3348 0.468585 1.24694e-06)
(16.3348 0.46859 1.21943e-06)
(16.3348 0.468596 1.17824e-06)
(16.3348 0.468604 1.10819e-06)
(16.3444 0.44929 7.83382e-07)
(16.3444 0.449292 7.95276e-07)
(16.3444 0.449296 7.91773e-07)
(16.3444 0.4493 8.02182e-07)
(16.3444 0.449305 7.89711e-07)
(16.3444 0.44931 7.90025e-07)
(16.3444 0.449315 7.69192e-07)
(16.3444 0.44932 7.60001e-07)
(16.3444 0.449325 7.31235e-07)
(16.3444 0.449333 7.03763e-07)
(16.3494 0.439222 2.6556e-07)
(16.3494 0.439224 2.70215e-07)
(16.3494 0.439228 2.68627e-07)
(16.3494 0.439232 2.73618e-07)
(16.3494 0.439237 2.67994e-07)
(16.3494 0.439242 2.70659e-07)
(16.3494 0.439247 2.61462e-07)
(16.3494 0.439252 2.63114e-07)
(16.3494 0.439257 2.51426e-07)
(16.3494 0.439265 2.51677e-07)
(6.52139 1.68626 2.89589e-07)
(6.52139 1.68626 3.07472e-07)
(6.52139 1.68626 4.00946e-07)
(6.52139 1.68627 3.23371e-07)
(6.52138 1.68627 3.54293e-07)
(6.52138 1.68627 2.48524e-07)
(6.52138 1.68627 2.68849e-07)
(6.52138 1.68628 1.24763e-07)
(6.52138 1.68628 1.29895e-07)
(6.52138 1.68628 -1.23798e-07)
(8.42037 2.09051 6.71727e-07)
(8.42037 2.09051 7.5944e-07)
(8.42037 2.09051 9.37587e-07)
(8.42037 2.09051 8.36835e-07)
(8.42036 2.09052 8.9571e-07)
(8.42036 2.09052 7.14342e-07)
(8.42036 2.09052 7.26015e-07)
(8.42036 2.09052 4.37558e-07)
(8.42036 2.09053 3.89646e-07)
(8.42036 2.09053 -2.15534e-07)
(9.44193 2.26987 1.03824e-06)
(9.44193 2.26987 1.16845e-06)
(9.44192 2.26987 1.40464e-06)
(9.44192 2.26988 1.29254e-06)
(9.44192 2.26988 1.37817e-06)
(9.44192 2.26988 1.13888e-06)
(9.44192 2.26989 1.14024e-06)
(9.44192 2.26989 7.49868e-07)
(9.44191 2.26989 6.4021e-07)
(9.44192 2.2699 -2.46842e-07)
(10.1489 2.37033 1.32536e-06)
(10.1489 2.37033 1.48477e-06)
(10.1489 2.37034 1.74347e-06)
(10.1489 2.37034 1.63969e-06)
(10.1489 2.37034 1.74003e-06)
(10.1489 2.37035 1.4706e-06)
(10.1489 2.37035 1.4577e-06)
(10.1489 2.37035 9.96407e-07)
(10.1489 2.37036 8.33693e-07)
(10.1489 2.37036 -2.73852e-07)
(10.6918 2.4305 1.58817e-06)
(10.6918 2.4305 1.76308e-06)
(10.6918 2.4305 2.02703e-06)
(10.6918 2.43051 1.92808e-06)
(10.6918 2.43051 2.03345e-06)
(10.6918 2.43051 1.73431e-06)
(10.6918 2.43052 1.70178e-06)
(10.6918 2.43052 1.1802e-06)
(10.6918 2.43052 9.61629e-07)
(10.6918 2.43053 -3.13962e-07)
(11.1353 2.4664 1.80299e-06)
(11.1353 2.46641 1.98836e-06)
(11.1353 2.46641 2.24473e-06)
(11.1353 2.46641 2.15374e-06)
(11.1353 2.46641 2.25607e-06)
(11.1353 2.46642 1.9358e-06)
(11.1353 2.46642 1.88045e-06)
(11.1353 2.46643 1.30983e-06)
(11.1353 2.46643 1.03811e-06)
(11.1353 2.46644 -3.65011e-07)
(11.5124 2.48602 1.99124e-06)
(11.5124 2.48602 2.18137e-06)
(11.5124 2.48602 2.4224e-06)
(11.5124 2.48603 2.33697e-06)
(11.5124 2.48603 2.42994e-06)
(11.5124 2.48603 2.09069e-06)
(11.5124 2.48604 2.00938e-06)
(11.5124 2.48604 1.39668e-06)
(11.5124 2.48604 1.07241e-06)
(11.5124 2.48605 -4.26006e-07)
(11.8421 2.49382 2.14664e-06)
(11.8421 2.49382 2.33902e-06)
(11.8421 2.49382 2.56002e-06)
(11.8421 2.49383 2.48009e-06)
(11.8421 2.49383 2.55896e-06)
(11.8421 2.49383 2.205e-06)
(11.8421 2.49384 2.09638e-06)
(11.8421 2.49384 1.44894e-06)
(11.8421 2.49384 1.07531e-06)
(11.8421 2.49385 -4.92153e-07)
(12.1362 2.49254 2.2791e-06)
(12.1362 2.49254 2.47097e-06)
(12.1362 2.49254 2.66893e-06)
(12.1362 2.49255 2.59304e-06)
(12.1362 2.49255 2.6542e-06)
(12.1362 2.49256 2.28799e-06)
(12.1362 2.49256 2.15107e-06)
(12.1362 2.49256 1.47506e-06)
(12.1362 2.49257 1.05526e-06)
(12.1362 2.49257 -5.59736e-07)
(12.4025 2.48397 2.38861e-06)
(12.4025 2.48397 2.5785e-06)
(12.4025 2.48398 2.75215e-06)
(12.4025 2.48398 2.67978e-06)
(12.4025 2.48398 2.72078e-06)
(12.4025 2.48399 2.34529e-06)
(12.4025 2.48399 2.18013e-06)
(12.4025 2.484 1.48171e-06)
(12.4025 2.484 1.02003e-06)
(12.4025 2.48401 -6.24417e-07)
(12.6465 2.46934 2.48076e-06)
(12.6465 2.46934 2.66722e-06)
(12.6465 2.46934 2.8161e-06)
(12.6465 2.46935 2.74642e-06)
(12.6465 2.46935 2.76566e-06)
(12.6465 2.46936 2.38335e-06)
(12.6465 2.46936 2.19046e-06)
(12.6465 2.46936 1.47533e-06)
(12.6465 2.46937 9.76299e-07)
(12.6465 2.46937 -6.8238e-07)
(12.8721 2.44952 2.55751e-06)
(12.8721 2.44952 2.73967e-06)
(12.8721 2.44952 2.86429e-06)
(12.8721 2.44952 2.79693e-06)
(12.8721 2.44953 2.79365e-06)
(12.8721 2.44953 2.40709e-06)
(12.8721 2.44954 2.18766e-06)
(12.8721 2.44954 1.46138e-06)
(12.8721 2.44954 9.29968e-07)
(12.8721 2.44955 -7.29916e-07)
(13.0822 2.42514 2.62264e-06)
(13.0822 2.42515 2.79977e-06)
(13.0822 2.42515 2.9011e-06)
(13.0822 2.42515 2.83572e-06)
(13.0822 2.42516 2.80985e-06)
(13.0822 2.42516 2.42142e-06)
(13.0822 2.42517 2.1771e-06)
(13.0822 2.42517 1.4449e-06)
(13.0822 2.42517 8.86243e-07)
(13.0822 2.42518 -7.63683e-07)
(13.2791 2.39671 2.67852e-06)
(13.2791 2.39672 2.85018e-06)
(13.2791 2.39672 2.92972e-06)
(13.2791 2.39672 2.86624e-06)
(13.2791 2.39673 2.81839e-06)
(13.2791 2.39673 2.43048e-06)
(13.2791 2.39674 2.16341e-06)
(13.2791 2.39674 1.4303e-06)
(13.2791 2.39674 8.49653e-07)
(13.2791 2.39675 -7.80638e-07)
(13.4645 2.3646 2.72797e-06)
(13.4645 2.3646 2.89384e-06)
(13.4645 2.36461 2.95338e-06)
(13.4645 2.36461 2.89189e-06)
(13.4645 2.36462 2.82323e-06)
(13.4645 2.36462 2.43816e-06)
(13.4645 2.36462 2.15088e-06)
(13.4645 2.36463 1.42156e-06)
(13.4645 2.36463 8.2419e-07)
(13.4645 2.36464 -7.78063e-07)
(13.6397 2.32911 2.77311e-06)
(13.6397 2.32911 2.93304e-06)
(13.6397 2.32912 2.97468e-06)
(13.6397 2.32912 2.91546e-06)
(13.6397 2.32912 2.82773e-06)
(13.6397 2.32913 2.44782e-06)
(13.6397 2.32913 2.14325e-06)
(13.6397 2.32914 1.42214e-06)
(13.6397 2.32914 8.13273e-07)
(13.6397 2.32915 -7.53592e-07)
(13.8059 2.29048 2.81594e-06)
(13.8059 2.29048 2.96988e-06)
(13.8059 2.29048 2.99597e-06)
(13.8059 2.29049 2.93953e-06)
(13.8059 2.29049 2.83501e-06)
(13.8059 2.2905 2.46256e-06)
(13.8059 2.2905 2.14398e-06)
(13.8059 2.29051 1.43517e-06)
(13.8059 2.29051 8.1995e-07)
(13.8059 2.29052 -7.05126e-07)
(13.964 2.24891 2.858e-06)
(13.964 2.24892 3.00599e-06)
(13.964 2.24892 3.01909e-06)
(13.964 2.24892 2.96619e-06)
(13.964 2.24893 2.84762e-06)
(13.964 2.24893 2.48497e-06)
(13.964 2.24894 2.15596e-06)
(13.964 2.24894 1.46323e-06)
(13.964 2.24895 8.46677e-07)
(13.964 2.24895 -6.31076e-07)
(14.1146 2.20458 2.90042e-06)
(14.1146 2.20458 3.04261e-06)
(14.1146 2.20459 3.04563e-06)
(14.1146 2.20459 2.99739e-06)
(14.1146 2.20459 2.86811e-06)
(14.1146 2.2046 2.51759e-06)
(14.1146 2.2046 2.18202e-06)
(14.1146 2.20461 1.50879e-06)
(14.1146 2.20461 8.95753e-07)
(14.1146 2.20462 -5.30085e-07)
(14.2584 2.15763 2.94395e-06)
(14.2584 2.15763 3.0805e-06)
(14.2584 2.15763 3.07658e-06)
(14.2584 2.15764 3.03438e-06)
(14.2584 2.15764 2.89801e-06)
(14.2584 2.15765 2.56182e-06)
(14.2584 2.15765 2.2236e-06)
(14.2584 2.15766 1.57277e-06)
(14.2584 2.15766 9.67844e-07)
(14.2584 2.15767 -4.02502e-07)
(14.3959 2.10819 2.98876e-06)
(14.3959 2.10819 3.12037e-06)
(14.3959 2.10819 3.11332e-06)
(14.3959 2.1082 3.07877e-06)
(14.3959 2.1082 2.93903e-06)
(14.3959 2.10821 2.61889e-06)
(14.3959 2.10821 2.28181e-06)
(14.3959 2.10822 1.65559e-06)
(14.3959 2.10822 1.06312e-06)
(14.3959 2.10823 -2.49474e-07)
(14.5274 2.05638 3.03616e-06)
(14.5274 2.05638 3.16282e-06)
(14.5274 2.05638 3.15385e-06)
(14.5274 2.05639 3.12673e-06)
(14.5274 2.05639 2.98558e-06)
(14.5274 2.0564 2.68235e-06)
(14.5274 2.0564 2.34907e-06)
(14.5274 2.05641 1.74932e-06)
(14.5274 2.05641 1.17243e-06)
(14.5274 2.05642 -8.02289e-08)
(14.6533 2.00231 3.08656e-06)
(14.6533 2.00231 3.2077e-06)
(14.6533 2.00231 3.19614e-06)
(14.6533 2.00232 3.17478e-06)
(14.6533 2.00232 3.0327e-06)
(14.6533 2.00232 2.74638e-06)
(14.6533 2.00233 2.41845e-06)
(14.6533 2.00233 1.8465e-06)
(14.6533 2.00234 1.28713e-06)
(14.6533 2.00235 9.61719e-08)
(14.774 1.94608 3.13909e-06)
(14.774 1.94608 3.25467e-06)
(14.774 1.94609 3.24087e-06)
(14.774 1.94609 3.22411e-06)
(14.774 1.94609 3.08174e-06)
(14.774 1.9461 2.81188e-06)
(14.774 1.9461 2.49068e-06)
(14.774 1.94611 1.94714e-06)
(14.774 1.94611 1.40707e-06)
(14.774 1.94612 2.78292e-07)
(14.8896 1.8878 3.19306e-06)
(14.8896 1.8878 3.30301e-06)
(14.8896 1.88781 3.28718e-06)
(14.8896 1.88781 3.27402e-06)
(14.8896 1.88782 3.13214e-06)
(14.8896 1.88782 2.87841e-06)
(14.8896 1.88783 2.56521e-06)
(14.8896 1.88783 2.05057e-06)
(14.8896 1.88784 1.53118e-06)
(14.8896 1.88785 4.64574e-07)
(15.0003 1.82758 3.24805e-06)
(15.0003 1.82758 3.35237e-06)
(15.0003 1.82759 3.33501e-06)
(15.0003 1.82759 3.32485e-06)
(15.0003 1.82759 3.18444e-06)
(15.0003 1.8276 2.94659e-06)
(15.0003 1.8276 2.64274e-06)
(15.0003 1.82761 2.15728e-06)
(15.0003 1.82762 1.6599e-06)
(15.0003 1.82762 6.55071e-07)
(15.1064 1.76552 3.30339e-06)
(15.1064 1.76552 3.40215e-06)
(15.1064 1.76553 3.38371e-06)
(15.1064 1.76553 3.3761e-06)
(15.1064 1.76553 3.23812e-06)
(15.1064 1.76554 3.01586e-06)
(15.1064 1.76554 2.72256e-06)
(15.1064 1.76555 2.26638e-06)
(15.1064 1.76555 1.79213e-06)
(15.1064 1.76556 8.48622e-07)
(15.2079 1.70174 3.35748e-06)
(15.2079 1.70174 3.45083e-06)
(15.2079 1.70174 3.43187e-06)
(15.2079 1.70175 3.42652e-06)
(15.2079 1.70175 3.29196e-06)
(15.2079 1.70176 3.08506e-06)
(15.2079 1.70176 2.80351e-06)
(15.2079 1.70177 2.37653e-06)
(15.2079 1.70177 1.92639e-06)
(15.2079 1.70178 1.04349e-06)
(15.3049 1.63635 3.40885e-06)
(15.3049 1.63635 3.49694e-06)
(15.3049 1.63636 3.47799e-06)
(15.3049 1.63636 3.47472e-06)
(15.3049 1.63637 3.34454e-06)
(15.3049 1.63637 3.15275e-06)
(15.3049 1.63638 2.88399e-06)
(15.3049 1.63638 2.48602e-06)
(15.3049 1.63639 2.06075e-06)
(15.3049 1.6364 1.23756e-06)
(15.3976 1.5695 3.45549e-06)
(15.3976 1.56951 3.53848e-06)
(15.3976 1.56951 3.52004e-06)
(15.3976 1.56951 3.51875e-06)
(15.3976 1.56952 3.39388e-06)
(15.3976 1.56952 3.21695e-06)
(15.3976 1.56953 2.96192e-06)
(15.3976 1.56953 2.59262e-06)
(15.3976 1.56954 2.19278e-06)
(15.3976 1.56955 1.42819e-06)
(15.486 1.50134 3.49542e-06)
(15.486 1.50134 3.57353e-06)
(15.486 1.50135 3.55607e-06)
(15.486 1.50135 3.55669e-06)
(15.486 1.50136 3.43792e-06)
(15.486 1.50136 3.27556e-06)
(15.486 1.50137 3.03505e-06)
(15.486 1.50137 2.69395e-06)
(15.486 1.50138 2.31989e-06)
(15.486 1.50138 1.6126e-06)
(15.5702 1.43203 3.52642e-06)
(15.5702 1.43203 3.59975e-06)
(15.5702 1.43204 3.5836e-06)
(15.5702 1.43204 3.58615e-06)
(15.5702 1.43205 3.47418e-06)
(15.5702 1.43205 3.32605e-06)
(15.5702 1.43206 3.10064e-06)
(15.5702 1.43206 2.78712e-06)
(15.5702 1.43207 2.43899e-06)
(15.5702 1.43208 1.78752e-06)
(15.6502 1.36177 3.54594e-06)
(15.6502 1.36177 3.61466e-06)
(15.6502 1.36177 3.59995e-06)
(15.6502 1.36178 3.60436e-06)
(15.6502 1.36178 3.49976e-06)
(15.6502 1.36179 3.36557e-06)
(15.6502 1.36179 3.15574e-06)
(15.6502 1.3618 2.86906e-06)
(15.6502 1.3618 2.5468e-06)
(15.6502 1.36181 1.9494e-06)
(15.726 1.29077 3.55073e-06)
(15.726 1.29078 3.61507e-06)
(15.726 1.29078 3.60202e-06)
(15.726 1.29079 3.60813e-06)
(15.726 1.29079 3.51122e-06)
(15.726 1.2908 3.3905e-06)
(15.726 1.2908 3.1965e-06)
(15.726 1.29081 2.93583e-06)
(15.726 1.29081 2.63916e-06)
(15.726 1.29082 2.09383e-06)
(15.7977 1.2193 3.53905e-06)
(15.7977 1.21931 3.5992e-06)
(15.7977 1.21931 3.58789e-06)
(15.7977 1.21931 3.59566e-06)
(15.7977 1.21932 3.50661e-06)
(15.7977 1.21932 3.39871e-06)
(15.7977 1.21933 3.22047e-06)
(15.7977 1.21933 2.98467e-06)
(15.7977 1.21934 2.71304e-06)
(15.7977 1.21935 2.21749e-06)
(15.8651 1.14765 3.50928e-06)
(15.8651 1.14766 3.56542e-06)
(15.8651 1.14766 3.55587e-06)
(15.8651 1.14766 3.56519e-06)
(15.8651 1.14767 3.48406e-06)
(15.8651 1.14767 3.3883e-06)
(15.8651 1.14768 3.22564e-06)
(15.8651 1.14768 3.0134e-06)
(15.8651 1.14769 2.76605e-06)
(15.8651 1.1477 2.31769e-06)
(15.9284 1.07617 3.45966e-06)
(15.9284 1.07617 3.51197e-06)
(15.9284 1.07618 3.50408e-06)
(15.9284 1.07618 3.5148e-06)
(15.9284 1.07619 3.44148e-06)
(15.9284 1.07619 3.35707e-06)
(15.9284 1.0762 3.20963e-06)
(15.9284 1.0762 3.01946e-06)
(15.9284 1.07621 2.79544e-06)
(15.9284 1.07622 2.39135e-06)
(15.9875 1.00526 3.38784e-06)
(15.9875 1.00527 3.43654e-06)
(15.9875 1.00527 3.43015e-06)
(15.9875 1.00527 3.44213e-06)
(15.9875 1.00528 3.37641e-06)
(15.9875 1.00528 3.3025e-06)
(15.9875 1.00529 3.16979e-06)
(15.9875 1.00529 3.00012e-06)
(15.9875 1.0053 2.79833e-06)
(15.9875 1.00531 2.43538e-06)
(16.0423 0.935402 3.29252e-06)
(16.0423 0.935405 3.33778e-06)
(16.0423 0.935408 3.33263e-06)
(16.0423 0.935413 3.34566e-06)
(16.0423 0.935418 3.28717e-06)
(16.0423 0.935423 3.22283e-06)
(16.0423 0.935428 3.10419e-06)
(16.0423 0.935433 2.9533e-06)
(16.0423 0.935438 2.77248e-06)
(16.0423 0.935447 2.44734e-06)
(16.0928 0.86714 3.1719e-06)
(16.0928 0.867142 3.21393e-06)
(16.0928 0.867146 3.20973e-06)
(16.0928 0.867151 3.22361e-06)
(16.0928 0.867156 3.1719e-06)
(16.0928 0.867161 3.11619e-06)
(16.0928 0.867166 3.01089e-06)
(16.0928 0.867171 2.87705e-06)
(16.0928 0.867176 2.71589e-06)
(16.0928 0.867185 2.42517e-06)
(16.1389 0.801113 3.02417e-06)
(16.1389 0.801115 3.06318e-06)
(16.1389 0.801119 3.05959e-06)
(16.1389 0.801123 3.07413e-06)
(16.1389 0.801128 3.0287e-06)
(16.1389 0.801133 2.98071e-06)
(16.1389 0.801138 2.88797e-06)
(16.1389 0.801143 2.76952e-06)
(16.1389 0.801149 2.62671e-06)
(16.1389 0.801157 2.36715e-06)
(16.1806 0.738041 2.84764e-06)
(16.1806 0.738043 2.88381e-06)
(16.1806 0.738047 2.88047e-06)
(16.1806 0.738052 2.89544e-06)
(16.1806 0.738056 2.85569e-06)
(16.1806 0.738061 2.81454e-06)
(16.1806 0.738066 2.73352e-06)
(16.1806 0.738072 2.62892e-06)
(16.1806 0.738077 2.50322e-06)
(16.1806 0.738085 2.27187e-06)
(16.2177 0.678727 2.63995e-06)
(16.2177 0.678729 2.67343e-06)
(16.2177 0.678733 2.67004e-06)
(16.2177 0.678737 2.68532e-06)
(16.2177 0.678742 2.65072e-06)
(16.2177 0.678747 2.6158e-06)
(16.2177 0.678752 2.54576e-06)
(16.2177 0.678757 2.4539e-06)
(16.2177 0.678762 2.34432e-06)
(16.2177 0.678771 2.13888e-06)
(16.2503 0.62403 2.39952e-06)
(16.2503 0.624032 2.43034e-06)
(16.2503 0.624036 2.42662e-06)
(16.2503 0.62404 2.44193e-06)
(16.2503 0.624045 2.41189e-06)
(16.2503 0.62405 2.3826e-06)
(16.2503 0.624055 2.32278e-06)
(16.2503 0.62406 2.24272e-06)
(16.2503 0.624066 2.14829e-06)
(16.2504 0.624074 1.967e-06)
(16.2784 0.574836 2.12357e-06)
(16.2784 0.574839 2.1517e-06)
(16.2784 0.574842 2.14758e-06)
(16.2784 0.574847 2.16288e-06)
(16.2784 0.574852 2.13703e-06)
(16.2784 0.574857 2.11341e-06)
(16.2784 0.574862 2.06322e-06)
(16.2784 0.574867 1.99509e-06)
(16.2784 0.574872 1.91537e-06)
(16.2784 0.57488 1.75832e-06)
(16.3017 0.532011 1.8112e-06)
(16.3017 0.532013 1.83625e-06)
(16.3017 0.532016 1.83176e-06)
(16.3017 0.532021 1.84651e-06)
(16.3017 0.532026 1.82458e-06)
(16.3018 0.532031 1.8063e-06)
(16.3017 0.532036 1.76515e-06)
(16.3018 0.532041 1.70895e-06)
(16.3017 0.532046 1.64343e-06)
(16.3018 0.532054 1.51128e-06)
(16.3205 0.496349 1.46137e-06)
(16.3205 0.496351 1.48292e-06)
(16.3205 0.496355 1.47832e-06)
(16.3205 0.496359 1.4925e-06)
(16.3205 0.496364 1.47419e-06)
(16.3205 0.496369 1.4621e-06)
(16.3205 0.496374 1.4293e-06)
(16.3205 0.496379 1.3871e-06)
(16.3205 0.496384 1.3358e-06)
(16.3205 0.496392 1.23292e-06)
(16.3347 0.468559 1.07725e-06)
(16.3347 0.468562 1.09425e-06)