/*--------------------------------*- C++ -*----------------------------------*\
| =========                 |                                                 |
| \\      /  F ield         | foam-extend: Open Source CFD                    |
|  \\    /   O peration     | Version:     3.2                                |
|   \\  /    A nd           | Web:         http://www.foam-extend.org         |
|    \\/     M anipulation  | For copyright notice see file Copyright         |
\*---------------------------------------------------------------------------*/
FoamFile
{
    version     2.0;
    format      ascii;
    class       volScalarField;
    location    "350000";
    object      Uz;
}
// * * * * * * * * * * * * * * * * * * * * * * * * * * * * * * * * * * * * * //

dimensions      [0 1 -1 0 0 0 0];

internalField   nonuniform List<scalar> 
5000
(
-3.99179e-10
-3.90591e-11
2.52833e-09
3.22652e-09
-8.90593e-10
-3.10683e-10
-2.77199e-10
-1.06992e-09
-1.71232e-09
-5.09205e-10
-2.76911e-10
1.30828e-09
5.75166e-09
5.1532e-09
-3.8279e-09
-1.82087e-09
3.61937e-11
-2.76548e-09
-5.00154e-09
-1.82403e-09
-8.22441e-10
-4.48529e-10
8.04212e-09
-7.52572e-11
-5.79173e-09
-6.79007e-11
4.43473e-09
-6.85857e-10
-5.9545e-09
-3.96617e-10
-5.60856e-09
-2.72906e-10
7.19083e-09
-4.14144e-09
-6.20379e-09
1.51005e-09
4.86572e-09
2.70393e-09
-1.03337e-09
-3.40687e-10
-1.16258e-08
-2.02245e-09
7.37287e-10
-6.56271e-09
-5.35095e-09
8.08708e-10
6.67332e-10
4.98163e-09
-2.94576e-09
9.33147e-11
-1.6576e-08
-7.27457e-09
-6.00016e-09
-8.90179e-09
-3.29969e-09
-1.52615e-09
-1.60416e-09
3.64501e-09
-1.55749e-09
6.25741e-10
-1.76833e-08
-3.60155e-09
-3.03616e-09
-1.11287e-08
-6.67199e-09
3.21773e-10
-3.44191e-09
6.18253e-11
3.13411e-09
-2.33155e-09
-1.27509e-08
-1.48364e-09
-1.99823e-09
-1.23392e-08
-6.34151e-09
4.61021e-09
2.89945e-11
2.57916e-09
3.41762e-09
-5.57271e-10
-5.0455e-10
-3.02023e-09
-8.58234e-09
-7.66264e-09
-9.11914e-10
-1.43881e-09
4.14479e-09
4.40497e-09
7.58514e-09
2.5101e-09
9.40442e-09
8.04573e-09
-6.18722e-09
-1.19582e-08
-1.13978e-08
-5.20274e-09
5.2936e-09
9.97151e-09
8.48867e-09
6.21631e-09
9.12596e-09
1.1183e-08
1.56937e-09
-1.64119e-08
-2.01759e-08
-5.97827e-09
1.27902e-09
8.80534e-09
6.01317e-09
8.36306e-09
5.14134e-09
-3.40564e-09
7.60324e-09
-5.8731e-09
-1.63682e-08
1.02037e-08
7.60192e-10
-5.01966e-09
7.3354e-09
1.45521e-08
-2.34629e-09
-3.54651e-09
7.37634e-09
-1.26562e-09
-3.66357e-09
1.1094e-08
-1.4257e-09
-9.17847e-09
3.15448e-09
1.61396e-08
5.23258e-09
-8.79584e-09
-5.07347e-09
4.01565e-09
6.16515e-09
6.46841e-09
-7.34887e-09
-5.42511e-09
-2.23429e-08
-2.82512e-09
4.95621e-09
-1.09474e-08
3.82446e-09
2.81265e-09
1.98486e-09
-8.61094e-09
-1.33222e-08
-6.32276e-10
-2.37312e-08
5.46968e-09
-1.94472e-08
-7.86962e-09
-2.1096e-08
-2.72805e-09
-5.72054e-09
-3.08731e-08
-6.25888e-09
-1.08412e-08
-1.2544e-08
-4.00447e-09
-3.20467e-08
-6.41089e-09
-2.26152e-08
-1.22226e-08
4.6165e-09
7.28519e-09
-2.16187e-09
-2.19873e-08
-2.61065e-09
-1.54657e-08
-8.84047e-09
-7.56144e-09
3.04564e-09
-1.39322e-08
6.27115e-10
1.00212e-08
-1.11599e-08
2.56008e-09
-2.62358e-09
-1.70214e-08
-3.26215e-09
4.00962e-09
-1.62854e-10
-5.69998e-09
1.23746e-08
-1.57307e-08
-1.73385e-08
1.14078e-08
-1.23561e-08
-7.02676e-09
1.44765e-08
1.67897e-08
4.01922e-09
2.01852e-08
1.39612e-08
-9.0031e-09
1.78372e-08
7.00758e-09
-9.02305e-09
2.22709e-08
4.99929e-08
8.71071e-09
2.43267e-08
3.86364e-08
9.2439e-09
5.31371e-09
3.50109e-08
2.18877e-09
1.13889e-08
2.41063e-08
1.93853e-08
3.73285e-08
1.71831e-08
2.29286e-08
7.94642e-09
1.74997e-08
2.04959e-08
2.00231e-09
3.09182e-08
-3.61684e-09
1.81835e-08
4.42302e-08
3.00729e-09
-5.5263e-09
2.53351e-08
8.28222e-09
-1.63108e-08
9.42484e-09
4.21729e-08
-1.07775e-08
1.58916e-08
-1.45643e-08
7.76573e-09
2.40889e-08
3.1329e-08
-1.67722e-08
-2.21183e-09
2.1901e-08
-1.01003e-08
-6.95549e-10
-3.78036e-09
-3.20973e-08
2.33448e-08
2.29577e-08
-1.05566e-08
-8.65263e-09
1.12779e-08
-1.0051e-09
-1.70992e-08
4.30033e-09
-7.42086e-09
-2.17485e-08
2.80907e-09
-4.10196e-08
-7.3558e-09
-8.11119e-09
1.52347e-08
3.36846e-09
-6.45275e-09
8.82155e-11
-4.11355e-08
-3.5833e-08
-7.3409e-08
-5.49944e-08
-3.67861e-08
-6.36267e-08
-5.6997e-09
-2.97775e-08
-4.93357e-08
-4.10942e-08
-5.00259e-08
-2.93405e-08
-5.04936e-08
-4.90647e-08
-4.18535e-08
-4.0048e-08
-4.41439e-08
-4.70557e-08
-4.87669e-08
-5.45337e-08
-3.58135e-08
-9.63929e-09
-6.74434e-08
-5.53966e-08
-5.60001e-08
-3.27796e-08
-6.49735e-08
-3.60391e-08
-1.81731e-08
-1.71409e-08
9.01086e-08
1.08732e-07
8.08732e-08
9.74511e-08
5.77183e-08
7.07236e-08
8.87533e-08
9.9689e-08
1.07117e-07
8.82172e-08
4.63215e-08
8.82558e-08
8.99594e-08
7.85134e-08
1.12991e-07
5.29262e-08
6.9277e-08
6.74276e-08
8.76378e-08
6.54584e-08
1.4046e-07
1.74448e-07
1.97678e-07
1.48826e-07
2.40666e-07
1.79839e-07
1.65085e-07
1.33843e-07
1.48708e-07
1.97203e-07
-2.04825e-08
5.6706e-09
5.09037e-08
-9.1717e-09
3.23131e-08
3.71873e-08
-2.16366e-08
4.48805e-08
-3.68836e-08
4.33454e-08
-7.38865e-08
-1.23512e-07
-8.75972e-08
-1.2082e-07
-1.24239e-07
-1.23175e-07
-1.07877e-07
-3.04634e-08
-9.43407e-08
-7.04448e-08
1.68625e-08
1.21228e-08
2.76199e-08
1.18745e-08
-1.58975e-10
-1.00448e-08
1.06057e-08
2.44354e-08
8.51784e-08
8.30287e-08
-6.33266e-08
-9.83347e-08
-8.00649e-08
4.28185e-09
-3.09471e-08
-8.70652e-08
-7.53664e-08
-8.42247e-08
-9.7966e-08
-8.6407e-08
-8.81621e-08
-6.93238e-08
-1.15616e-07
-1.21785e-07
-9.69348e-08
-1.16191e-07
-1.19608e-07
-1.11204e-07
-8.50506e-08
-8.21996e-08
-1.56428e-07
-1.57346e-07
-3.00647e-07
-2.39429e-07
-2.13795e-07
-1.95529e-07
-2.01828e-07
-2.95119e-07
-2.22775e-07
-2.37376e-07
5.64332e-08
-1.0527e-09
-7.41087e-08
2.12126e-08
3.65088e-08
1.53096e-07
1.43035e-07
9.32661e-09
5.68634e-08
1.72249e-08
-2.53045e-07
-2.771e-07
-2.25468e-07
-2.82995e-07
-1.62859e-07
-1.20942e-07
-3.22813e-07
-2.21545e-07
-2.19109e-07
-3.30625e-07
5.02976e-08
-1.23598e-07
2.54412e-08
6.30703e-09
-1.27606e-07
-6.44019e-08
-3.01391e-08
8.58216e-08
-1.98754e-07
-1.60485e-07
-8.51721e-08
-8.44159e-08
3.2969e-08
-2.56573e-07
-2.04107e-07
-8.99261e-08
-1.03729e-07
-1.18445e-07
-2.52461e-07
-9.09251e-08
5.40126e-07
5.62656e-07
5.3607e-07
4.43256e-07
4.83683e-07
5.40643e-07
4.98158e-07
4.3978e-07
4.50899e-07
5.25248e-07
-9.17847e-07
-8.85355e-07
-8.19847e-07
-8.6947e-07
-8.81729e-07
-7.5614e-07
-8.52312e-07
-9.1037e-07
-9.00345e-07
-9.19659e-07
-5.08832e-06
-5.07993e-06
-4.97071e-06
-5.01287e-06
-5.00794e-06
-4.98029e-06
-4.9179e-06
-4.99135e-06
-4.97647e-06
-4.95724e-06
-4.32733e-06
-4.42333e-06
-4.26945e-06
-4.09795e-06
-4.17519e-06
-4.39546e-06
-4.53002e-06
-4.36174e-06
-4.21284e-06
-4.37134e-06
3.72524e-07
1.13103e-07
2.18665e-07
3.38833e-07
1.07495e-07
8.51833e-09
-2.383e-07
-1.45139e-07
2.47943e-07
2.934e-07
-1.22106e-06
-1.38547e-06
-1.48758e-06
-1.23397e-06
-1.24064e-06
-1.24328e-06
-1.14213e-06
-1.36057e-06
-1.31832e-06
-1.12037e-06
-2.45103e-06
-2.02246e-06
-2.30546e-06
-2.37692e-06
-1.8332e-06
-1.9945e-06
-2.00813e-06
-2.04408e-06
-2.23511e-06
-2.42624e-06
-1.22411e-06
-8.24049e-07
-1.01684e-06
-1.09108e-06
-1.05781e-06
-8.80901e-07
-9.01891e-07
-9.48025e-07
-9.66688e-07
-9.54382e-07
-7.7192e-10
2.08042e-10
7.62679e-10
1.45889e-09
-9.98331e-10
1.40488e-10
-3.42922e-10
-1.62992e-09
-1.33037e-09
7.99553e-10
1.25923e-09
-1.02653e-09
3.13851e-10
1.24972e-09
-6.49047e-09
1.3252e-09
1.2735e-09
-6.104e-09
-3.50352e-09
2.06411e-09
-5.2599e-10
-2.64635e-09
2.04138e-09
2.27904e-09
-5.1078e-09
4.0464e-09
6.54436e-09
-4.80611e-09
-7.9431e-09
5.29725e-09
-4.39339e-09
-5.89513e-11
2.55668e-09
-1.17457e-09
-4.27997e-09
7.29639e-09
7.58262e-09
-4.98903e-09
-9.38923e-09
-1.41235e-09
-6.62515e-09
1.58189e-09
5.04377e-09
3.40117e-10
-3.76771e-09
3.48104e-09
7.69277e-09
-4.4322e-09
-4.19037e-09
-1.02332e-08
-4.07761e-09
6.96939e-09
8.30925e-09
6.04867e-09
1.9284e-09
2.56862e-09
8.32115e-09
6.1893e-10
-2.63251e-09
-1.0445e-08
-1.4832e-09
1.46105e-08
8.70605e-09
3.85249e-09
7.51295e-09
7.66962e-09
7.25429e-09
1.11212e-09
-9.51314e-09
-5.3925e-09
-3.08174e-09
1.47073e-08
7.87404e-09
6.00116e-10
1.34888e-08
9.09712e-09
2.68706e-09
-2.25476e-09
-1.03208e-08
-2.91674e-09
-3.09337e-09
-7.85197e-10
3.83452e-09
-4.10394e-09
1.33644e-08
3.29229e-10
5.45006e-10
4.61287e-10
-8.46e-09
4.36562e-09
-4.43687e-09
-3.6361e-09
-7.25029e-09
-1.22133e-08
5.76141e-09
1.83491e-09
4.41909e-09
4.61857e-09
-3.60743e-09
8.52418e-09
-8.19787e-09
-9.60111e-09
-1.45988e-08
-1.72837e-08
-8.66391e-10
1.17e-08
7.93156e-09
4.1599e-09
2.33003e-09
2.66364e-09
-5.1432e-09
-1.38093e-08
5.19459e-10
-6.25159e-09
-2.13441e-09
1.64022e-08
2.61557e-09
9.00589e-09
6.37621e-09
-2.66296e-09
-1.11324e-09
-1.23788e-08
1.38552e-09
-1.97999e-09
-1.42624e-08
8.96109e-09
6.64416e-10
2.11318e-09
1.4786e-08
3.47603e-09
1.7547e-09
-1.34595e-08
7.79393e-09
1.97037e-09
-1.42162e-08
1.48964e-09
-4.33824e-09
-1.70693e-08
-7.4286e-09
1.46571e-08
-8.6549e-09
-1.52469e-08
4.003e-09
-1.35129e-09
-1.16469e-08
-9.65659e-09
7.58492e-09
-1.18882e-08
-1.93217e-08
6.76771e-09
-1.64067e-08
-6.95565e-09
-1.65959e-08
7.07357e-09
-1.21563e-09
-1.49929e-08
4.37408e-09
-6.7557e-09
-6.95385e-09
-1.74171e-08
-1.56768e-08
9.56828e-09
2.24073e-09
4.56556e-09
2.2581e-08
-2.25198e-09
-1.71555e-08
-9.4239e-09
7.12303e-09
-1.44452e-08
2.79696e-09
3.84151e-09
2.36518e-09
4.69034e-10
1.10166e-08
-5.08268e-09
-1.93392e-08
-2.97425e-10
-1.14175e-08
-3.66186e-09
-7.62844e-09
4.23437e-09
-1.47431e-08
-8.25223e-10
1.59354e-09
-1.52858e-08
-4.92699e-09
1.5475e-08
-1.26002e-08
-6.69084e-09
-7.08504e-09
8.83375e-09
-9.22965e-09
6.96428e-09
-1.23514e-09
-1.62522e-09
1.60964e-08
-4.39115e-09
9.11603e-09
-3.82433e-09
1.11222e-08
-9.20722e-09
7.92721e-09
2.08619e-08
-2.13232e-08
1.98947e-08
2.24969e-08
-1.50345e-08
7.38626e-09
1.22549e-08
3.07808e-08
1.17187e-08
3.0743e-08
5.78896e-09
1.16948e-08
2.88197e-08
1.17025e-08
3.8744e-09
2.73405e-08
3.04673e-08
-2.87528e-09
7.20669e-09
1.01536e-08
1.36298e-08
3.10357e-08
-4.18709e-09
1.11776e-08
2.26727e-08
2.03042e-08
2.52924e-08
-4.04805e-08
8.62515e-10
-1.1101e-08
-2.53507e-08
1.3575e-08
-3.64556e-08
-2.86001e-08
1.21184e-08
-1.53904e-08
-2.19737e-08
-2.61439e-08
-8.48695e-09
-2.64929e-08
-6.15532e-08
-4.76151e-09
-4.3778e-08
-4.09038e-08
-2.36934e-08
-2.03475e-08
-4.13933e-08
-1.96233e-08
-2.17164e-08
-9.48631e-09
-1.78915e-08
7.94496e-09
-4.01726e-08
-3.54703e-08
-6.48943e-09
-5.04951e-08
-4.43376e-08
-9.69515e-09
-3.39686e-08
-1.64742e-09
-2.69955e-08
-1.36604e-08
-2.1715e-08
-1.02762e-08
-4.19826e-08
-5.7457e-08
-3.06768e-08
-2.23926e-08
-6.06495e-08
-1.21879e-08
-1.28289e-08
-5.05071e-08
-1.39203e-08
-1.90775e-08
-6.08514e-08
-1.17996e-08
-3.06551e-08
9.13993e-09
9.74559e-09
5.29574e-09
1.55951e-08
-2.5658e-08
-1.81722e-09
-6.08527e-09
-1.36962e-09
1.12817e-08
-2.09774e-08
6.1485e-08
8.81532e-08
3.57717e-08
7.13385e-08
3.94736e-08
5.23563e-08
7.70197e-08
6.12749e-08
8.84101e-08
4.47939e-08
-6.67202e-08
-4.50117e-08
-4.22148e-08
-5.52122e-09
-5.82248e-08
-7.4635e-08
-5.42641e-08
-1.00331e-07
-7.11692e-08
-3.2748e-08
9.06923e-08
6.98185e-08
9.56374e-08
8.35353e-08
8.13125e-08
1.09688e-07
9.56848e-08
9.41583e-08
4.38585e-08
1.24733e-07
1.07513e-07
7.54791e-08
1.30245e-07
7.03422e-08
8.47265e-08
1.74236e-07
1.1253e-07
2.20611e-07
1.56031e-07
1.88849e-07
5.84956e-08
3.82255e-08
6.12329e-08
4.56708e-08
2.91761e-08
5.01154e-08
2.55196e-08
3.22385e-08
6.8995e-08
8.65401e-08
1.47031e-07
1.22216e-07
1.06563e-07
1.8656e-07
1.9368e-07
7.73151e-08
1.74116e-07
1.54882e-07
1.11708e-07
1.40525e-07
-4.49479e-09
9.06787e-08
1.11958e-08
-6.62248e-10
6.86802e-08
5.86909e-09
2.37402e-08
6.54993e-08
8.15868e-08
1.74967e-08
5.89786e-08
8.30373e-08
7.56693e-08
8.79841e-08
1.18973e-07
8.37827e-08
9.96756e-08
6.83826e-08
6.48426e-08
7.59374e-08
2.31497e-08
4.15358e-08
-5.81067e-08
5.42941e-09
2.48795e-08
1.00113e-07
9.1143e-08
-5.76848e-08
-7.80769e-09
-7.43969e-09
3.72487e-07
3.70231e-07
2.17867e-07
2.60034e-07
2.38341e-07
3.01018e-07
2.81429e-07
2.21728e-07
2.37142e-07
2.7e-07
5.31529e-07
5.26172e-07
6.526e-07
6.86831e-07
5.67243e-07
6.12013e-07
5.18281e-07
5.6115e-07
5.66793e-07
4.53176e-07
7.65593e-08
-1.95549e-08
1.04556e-07
7.21744e-08
1.17216e-07
2.52672e-07
6.33423e-08
1.99819e-07
1.03603e-07
-6.44126e-09
1.51821e-06
1.36559e-06
1.42207e-06
1.24533e-06
1.29148e-06
1.36443e-06
1.41749e-06
1.47324e-06
1.19476e-06
1.34461e-06
4.79353e-07
6.23633e-07
6.77761e-07
3.82058e-07
2.31286e-07
3.66823e-07
4.83587e-07
4.36517e-07
4.03514e-07
4.6124e-07
-1.3627e-06
-1.39493e-06
-1.34763e-06
-1.40989e-06
-1.40718e-06
-1.32934e-06
-1.29471e-06
-1.39559e-06
-1.36386e-06
-1.33843e-06
-6.97468e-06
-6.963e-06
-6.83756e-06
-6.80171e-06
-6.6699e-06
-6.32508e-06
-6.59099e-06
-6.76386e-06
-6.58184e-06
-6.56076e-06
-9.93417e-06
-9.94918e-06
-9.88146e-06
-9.77429e-06
-9.76138e-06
-9.78846e-06
-1.00846e-05
-1.02864e-05
-9.75124e-06
-9.90133e-06
-6.75846e-06
-6.99682e-06
-7.16126e-06
-6.78231e-06
-6.71974e-06
-7.22507e-06
-7.30532e-06
-6.96189e-06
-7.09387e-06
-7.14472e-06
-9.38292e-06
-9.60052e-06
-9.50718e-06
-9.39695e-06
-9.57239e-06
-9.63062e-06
-9.37084e-06
-9.25667e-06
-9.63455e-06
-9.57075e-06
-1.37307e-06
-1.18446e-06
-1.5493e-06
-1.40843e-06
-1.41842e-06
-1.89615e-06
-1.26274e-06
-1.38162e-06
-1.44882e-06
-1.51132e-06
2.03336e-06
2.14059e-06
1.69304e-06
1.97178e-06
2.04962e-06
1.90048e-06
1.83345e-06
2.09844e-06
2.17171e-06
1.78621e-06
2.39158e-09
-2.55847e-10
5.13133e-10
-1.00543e-09
-1.47708e-10
-5.08632e-10
3.43592e-10
-2.53947e-10
9.52619e-10
5.6015e-10
5.08122e-09
-5.17301e-09
1.49676e-09
-3.29833e-09
-1.30565e-09
-1.05459e-09
3.23564e-09
-2.33616e-09
2.08251e-09
3.05681e-09
3.96907e-09
-5.06201e-09
3.62128e-09
-8.1641e-10
-3.33498e-09
-3.37341e-09
3.54911e-09
-7.03891e-09
3.02386e-09
6.06376e-09
2.13205e-09
-5.07183e-09
2.27364e-09
1.97833e-09
-1.75225e-09
-8.97329e-10
1.22456e-09
-9.14312e-09
3.54071e-09
9.36229e-09
3.90885e-09
-5.18447e-09
2.31581e-09
7.3158e-10
2.57769e-09
4.48868e-09
1.99481e-09
-3.70663e-09
2.9343e-09
2.59935e-09
7.42299e-09
-1.50498e-09
-5.68268e-10
4.89067e-09
6.666e-09
2.49967e-09
2.42454e-09
-1.83845e-09
5.29055e-09
2.29312e-10
1.24341e-08
2.19671e-09
-6.97922e-09
7.42703e-09
1.09083e-08
-2.65776e-09
-4.35586e-09
-2.18507e-09
2.58746e-09
-1.5346e-09
4.15041e-09
4.86753e-09
-7.97127e-09
2.81563e-09
6.24238e-09
-2.25266e-09
-7.74219e-09
-3.2845e-09
1.26245e-09
-2.4164e-09
-1.08297e-08
-5.06544e-10
1.11578e-08
1.14092e-09
2.4055e-09
3.73163e-09
-1.13984e-09
-2.62554e-09
2.1447e-09
2.7124e-09
-1.94111e-08
3.40481e-09
1.05776e-08
1.51766e-09
8.38792e-09
1.45141e-08
8.05534e-11
-6.19737e-09
4.13125e-09
2.50618e-09
-1.17519e-08
1.51292e-08
3.24767e-09
1.35777e-09
1.90688e-08
2.15127e-08
-1.24984e-09
-8.41649e-09
2.03325e-09
2.89179e-09
-5.38089e-09
1.49584e-08
4.31166e-09
-2.66279e-09
1.19572e-08
1.10222e-08
-5.67248e-09
-1.85014e-10
-8.33119e-09
-3.01222e-10
4.26687e-09
2.7028e-09
2.2571e-09
-5.50353e-10
3.10322e-09
8.13885e-09
1.16573e-09
1.38921e-08
-2.24165e-09
-2.87023e-09
1.09095e-08
6.02661e-10
1.61709e-08
2.00498e-08
-2.21585e-09
1.86057e-08
1.6334e-08
1.22072e-08
9.35569e-09
1.60769e-08
5.13169e-09
2.46896e-09
1.85644e-08
1.35e-08
-4.1907e-10
1.68142e-08
2.0032e-08
-3.71447e-09
-1.30263e-09
2.05074e-08
1.25604e-08
5.16766e-09
2.85436e-09
-2.92207e-09
8.52159e-10
1.41744e-09
-4.0582e-09
-4.2046e-09
-8.48874e-09
-1.09309e-08
1.27867e-08
8.11464e-09
-1.52176e-08
7.06179e-09
-6.65715e-09
-2.99802e-08
-1.56353e-08
5.46792e-09
-9.53577e-09
-1.15293e-08
-7.95372e-09
1.47633e-09
-1.21643e-08
5.56957e-10
-4.96882e-09
-2.41537e-08
-7.02586e-10
-1.44068e-08
-9.36617e-09
-3.12716e-09
-1.22951e-08
4.00191e-09
1.24279e-08
-7.10252e-09
-2.01685e-09
3.6382e-09
5.92187e-09
-2.54369e-08
-6.34648e-10
-4.98621e-09
-1.47395e-08
-1.22004e-08
-1.56415e-08
-1.7172e-08
-1.18004e-08
-2.39744e-09
-7.28706e-09
-1.3853e-08
-7.60353e-09
-2.34302e-08
-3.5728e-08
-3.43148e-08
-2.60899e-08
-3.19514e-08
-2.77438e-08
-8.77931e-09
-3.06378e-08
-1.1189e-08
-2.09245e-08
-2.41121e-08
-4.4642e-08
-3.64542e-08
-2.32017e-08
-3.90454e-08
-1.15288e-08
-1.51996e-08
-3.52162e-08
-8.5071e-09
-1.84829e-08
-1.0013e-08
-6.27934e-09
-1.3169e-08
-5.17765e-09
1.63136e-08
-3.38316e-10
-1.98429e-08
2.28162e-08
-1.28698e-09
2.46685e-09
1.49235e-08
8.67238e-09
8.85289e-09
1.08428e-08
1.05378e-08
-2.13683e-09
-3.94032e-09
3.18391e-08
-4.28368e-10
5.61338e-09
3.92322e-09
-5.55327e-09
1.19826e-08
-1.06946e-08
-3.16211e-08
-8.81413e-09
-5.04697e-09
-3.07783e-08
-1.66768e-08
-1.68657e-09
-2.44173e-08
2.72014e-08
4.36805e-08
1.93276e-08
-9.49049e-11
2.48316e-08
1.26526e-08
-3.21798e-08
2.25798e-08
2.87157e-09
-1.93761e-09
2.78766e-08
2.62035e-09
4.36258e-08
1.141e-08
2.89174e-08
-6.9448e-09
-2.01596e-08
3.31218e-08
-7.42277e-09
3.58812e-08
2.98406e-08
8.1681e-11
3.49801e-08
4.18027e-08
2.05615e-08
2.82072e-08
3.36807e-08
1.02238e-08
2.37437e-08
4.84167e-08
3.90983e-08
6.18564e-08
3.07835e-08
5.37433e-08
5.37639e-08
6.57384e-08
7.41391e-08
4.53428e-08
7.67468e-08
3.43928e-09
4.17725e-08
5.66105e-08
3.93732e-08
2.94132e-08
3.5459e-08
3.57389e-08
4.98769e-08
3.89198e-08
5.03443e-08
4.62269e-08
-5.15691e-08
-6.55928e-08
-6.87907e-08
-7.56427e-08
-4.86279e-08
-5.64818e-08
-5.50167e-08
-5.49751e-08
-9.35105e-08
-4.08921e-08
-6.21964e-08
-6.93807e-08
-5.95742e-08
-8.6357e-08
-7.26638e-08
-7.62019e-08
-5.60589e-08
-4.12001e-08
-8.32792e-08
-7.35272e-08
5.1216e-08
1.18559e-08
3.83929e-08
9.79422e-09
5.69369e-09
-3.97888e-08
-3.89306e-08
-1.36947e-08
2.83779e-08
4.67311e-08
3.23483e-08
1.29128e-08
-3.81716e-08
-1.12476e-08
-2.69216e-08
-8.25475e-08
-4.31709e-08
-6.40732e-08
-4.48739e-08
-3.77701e-08
5.24008e-08
1.27862e-07
1.0509e-07
8.73992e-08
9.42831e-08
9.78894e-08
7.36173e-08
1.02422e-07
1.26863e-07
1.04991e-07
-3.07574e-08
4.17412e-08
9.20145e-08
9.31689e-08
1.28127e-07
7.29207e-08
8.25466e-08
1.07439e-07
9.28189e-08
8.75261e-08
7.53304e-08
1.2364e-07
7.09299e-08
7.53324e-08
9.19237e-08
8.74735e-08
8.37497e-08
8.54112e-08
9.48995e-08
9.84437e-08
3.10233e-07
3.37469e-07
1.98029e-07
2.2429e-07
2.67443e-07
2.78796e-07
2.98468e-07
2.16157e-07
2.29517e-07
2.45261e-07
6.30622e-07
6.14688e-07
5.636e-07
6.38071e-07
6.43153e-07
7.20472e-07
6.96444e-07
5.85463e-07
6.08184e-07
5.49849e-07
7.98519e-07
7.35262e-07
7.75409e-07
7.53722e-07
8.66741e-07
9.51569e-07
7.81921e-07
8.90993e-07
8.88219e-07
7.55892e-07
1.98395e-06
1.79918e-06
1.96745e-06
1.96253e-06
1.84151e-06
1.92835e-06
1.94915e-06
2.11197e-06
1.84537e-06
1.85974e-06
2.10658e-06
2.19055e-06
2.3846e-06
2.11365e-06
2.16086e-06
2.19951e-06
2.22368e-06
2.16816e-06
2.05159e-06
2.10855e-06
2.37793e-06
2.48731e-06
2.53426e-06
2.52755e-06
2.65212e-06
2.42252e-06
2.48146e-06
2.51626e-06
2.51572e-06
2.45779e-06
6.40558e-07
6.29792e-07
7.17786e-07
5.82748e-07
6.51072e-07
6.92494e-07
6.47137e-07
6.79187e-07
6.87655e-07
6.48404e-07
-3.96716e-06
-4.07324e-06
-4.00714e-06
-4.34865e-06
-4.27764e-06
-3.8408e-06
-3.75882e-06
-4.16181e-06
-3.85117e-06
-3.48306e-06
-1.32072e-05
-1.32005e-05
-1.31892e-05
-1.3166e-05
-1.30976e-05
-1.30598e-05
-1.32217e-05
-1.3124e-05
-1.30307e-05
-1.31159e-05
-1.58321e-05
-1.61315e-05
-1.60913e-05
-1.57367e-05
-1.60096e-05
-1.61092e-05
-1.64829e-05
-1.62107e-05
-1.6155e-05
-1.63929e-05
-1.35052e-05
-1.37679e-05
-1.39021e-05
-1.34592e-05
-1.3465e-05
-1.36503e-05
-1.35959e-05
-1.36334e-05
-1.37122e-05
-1.35941e-05
-1.60451e-06
-1.16992e-06
-1.30754e-06
-1.58849e-06
-1.07515e-06
-1.36942e-06
-1.34565e-06
-1.35912e-06
-1.28747e-06
-1.40661e-06
6.30785e-06
6.69983e-06
6.61386e-06
6.41889e-06
6.561e-06
6.52307e-06
6.57367e-06
6.30061e-06
6.66978e-06
6.66509e-06
1.48715e-09
-2.65569e-09
-8.84496e-10
-9.82654e-10
-1.51315e-09
-1.03029e-09
-3.00869e-10
-1.25075e-09
8.34885e-10
1.80673e-10
2.79877e-09
-2.72813e-09
3.88173e-09
-2.42454e-09
-2.61752e-09
-6.4581e-10
1.49809e-09
-4.25521e-09
3.79593e-09
3.76307e-09
-2.35077e-10
-3.1057e-09
5.71422e-09
-3.98883e-09
-9.38932e-09
-1.07833e-09
2.30634e-11
-7.99409e-09
5.1678e-09
4.69369e-09
-3.67804e-09
-4.81483e-09
9.06554e-09
-6.31483e-11
-1.01031e-08
-9.68742e-10
-6.9571e-10
-9.97897e-09
4.71927e-09
3.05585e-09
-1.18924e-09
7.83231e-10
1.01559e-08
2.03549e-09
-2.77392e-09
-1.12383e-10
-1.18014e-09
-3.8513e-09
-4.74336e-09
2.22477e-09
-9.68286e-10
4.09595e-10
5.5422e-09
3.44066e-09
-1.18712e-09
-6.15635e-09
-9.47844e-10
-4.76746e-10
-7.09868e-09
-1.39053e-09
-3.25547e-09
-8.48484e-09
-1.31009e-09
1.02285e-09
-4.65381e-09
-1.35033e-08
-4.07069e-10
2.38427e-09
-3.48189e-10
-4.68721e-09
2.56703e-09
-8.48106e-09
-4.87059e-09
2.30969e-09
-3.35755e-09
-1.11018e-08
-2.91565e-09
3.17272e-09
3.34462e-09
-4.05021e-09
-4.20393e-09
2.18507e-09
3.03622e-09
-2.39911e-10
-5.07833e-10
-2.99141e-09
-1.86832e-09
-8.0308e-10
9.73506e-09
-4.43654e-09
-6.62944e-09
5.55497e-09
1.84226e-09
-6.05211e-09
3.22346e-09
2.68715e-09
-8.06092e-09
-3.00409e-09
3.63012e-09
-5.29619e-09
1.78799e-09
1.0946e-08
-7.96664e-09
3.88846e-09
4.36904e-09
-4.3985e-09
-1.81336e-08
-8.81593e-09
-1.12121e-09
-7.68733e-10
-1.75616e-09
2.61047e-08
-1.35511e-08
-1.02175e-08
6.87268e-09
-6.92538e-09
-1.96552e-08
-1.32604e-08
-8.06953e-10
-3.4107e-09
-1.70073e-08
1.70279e-08
-1.10671e-08
-1.10141e-08
6.68176e-09
-2.33824e-09
-4.79576e-09
-1.34085e-08
-9.06044e-09
-8.48738e-10
-2.10686e-08
9.48078e-09
-2.39225e-09
-3.53407e-09
-3.66613e-09
1.25441e-09
-3.36223e-10
-1.84733e-08
1.84009e-09
2.09309e-09
-2.5139e-09
1.72392e-09
-2.97762e-09
-1.23647e-08
2.94046e-09
2.9929e-09
3.21325e-10
-9.24451e-09
9.22079e-09
1.27359e-08
1.98372e-08
-8.13385e-09
-7.56072e-09
1.11725e-08
-1.86319e-09
-1.75805e-09
8.98708e-09
1.10083e-08
-6.65346e-09
1.95827e-08
3.6445e-08
-1.3964e-08
-1.73913e-09
2.11548e-08
-9.69511e-09
7.1638e-09
2.1466e-08
3.04507e-08
-9.46533e-09
1.05024e-08
2.01611e-08
1.21298e-08
1.43474e-08
1.64073e-08
5.32091e-09
2.47641e-08
2.74993e-08
2.03071e-08
1.58148e-08
1.06873e-08
9.21695e-09
1.48836e-08
1.4736e-08
-5.66211e-09
1.27875e-08
1.99568e-08
8.66206e-09
-3.19582e-09
9.52007e-09
1.80786e-08
1.01536e-09
-6.83985e-10
-3.96917e-10
-1.74549e-10
7.44787e-09
-9.45165e-09
-9.01735e-09
-1.31321e-08
-2.40411e-08
9.84807e-09
-1.38409e-08
-3.4778e-09
-4.43685e-09
-1.48908e-08
1.75928e-09
-4.5854e-09
-1.24998e-08
5.82778e-12
-1.04289e-08
-2.81435e-09
-4.0441e-08
-1.11066e-08
-2.13444e-08
-3.88857e-08
-7.03384e-09
-2.78147e-08
-2.70098e-08
-2.48647e-08
-2.67004e-08
-4.70751e-08
-2.7329e-08
-2.34995e-08
-2.21745e-08
-2.10031e-08
-2.03381e-08
-2.20895e-08
-1.96594e-08
-2.4241e-08
-2.44527e-08
-3.34237e-08
-3.09558e-09
-2.52582e-08
-8.20293e-09
3.50124e-09
-2.28145e-08
-1.21243e-08
2.73661e-08
3.69049e-09
4.63794e-10
7.97786e-09
2.7056e-08
1.11943e-08
1.38355e-08
1.39278e-08
-2.75711e-10
7.53713e-09
1.76628e-08
-2.75084e-09
9.89368e-09
1.56436e-08
5.21888e-08
3.70192e-08
2.56831e-08
2.91201e-08
1.79835e-08
6.57003e-08
5.47284e-09
3.64828e-08
3.99256e-08
2.24971e-08
5.45513e-08
1.95125e-08
2.33304e-09
1.44376e-08
2.49224e-09
2.67689e-08
9.60278e-09
6.97353e-08
2.88201e-08
1.06808e-08
5.14848e-08
3.70603e-08
2.98339e-08
4.32827e-08
2.71521e-08
4.7842e-08
5.21923e-08
2.9543e-08
6.49243e-08
5.49781e-08
6.58966e-08
6.46383e-08
2.85335e-08
6.07675e-08
5.59966e-08
6.62893e-09
9.25052e-08
3.1632e-08
1.24946e-08
8.3612e-08
4.79901e-08
4.76106e-08
5.71846e-08
6.24584e-08
8.56042e-08
2.58277e-08
5.11761e-08
7.14422e-08
1.70871e-08
4.91315e-08
7.96459e-08
8.00187e-08
1.25203e-07
5.41885e-08
8.40314e-08
1.29659e-07
1.17427e-07
1.34574e-07
1.41307e-07
1.30211e-07
-6.96035e-08
-8.88704e-08
-7.08746e-08
-7.5035e-08
-1.04611e-07
-6.53668e-08
-5.8259e-08
-6.71202e-08
-7.52793e-08
-7.49146e-08
-1.56217e-07
-2.46645e-07
-1.64645e-07
-1.16889e-07
-1.49073e-07
-1.56738e-07
-1.64932e-07
-2.13878e-07
-1.91552e-07
-2.06081e-07
-4.0482e-08
-8.41187e-09
2.3209e-08
3.75536e-08
-2.62127e-09
-7.05713e-09
8.68774e-09
-5.60876e-08
4.4793e-09
-4.86765e-09
-1.07055e-07
1.18919e-08
1.78091e-08
2.50097e-08
9.71255e-08
-4.36983e-08
2.69462e-09
4.50794e-08
-1.94972e-08
-5.28557e-09
-9.72478e-08
-1.83297e-08
-8.57747e-08
-1.30618e-07
-1.9315e-08
-9.06836e-08
-9.76139e-08
-4.20991e-08
-4.39038e-08
-3.31798e-08
8.82843e-08
1.39408e-07
1.46665e-07
1.35075e-07
1.68823e-07
1.32836e-07
1.42881e-07
1.31614e-07
1.17354e-07
1.23681e-07
1.92867e-07
2.3324e-07
1.688e-07
1.86999e-07
2.24399e-07
3.00655e-07
3.01082e-07
1.7142e-07
1.9588e-07
1.95757e-07
7.55376e-07
7.56032e-07
5.92617e-07
6.34992e-07
6.65402e-07
7.21981e-07
6.94146e-07
6.41524e-07
6.68811e-07
6.56009e-07
1.18454e-06
1.1959e-06
1.23803e-06
1.25125e-06
1.13719e-06
1.15546e-06
1.08205e-06
1.13316e-06
1.18302e-06
1.07252e-06
2.08498e-06
1.98704e-06
2.08229e-06
2.07014e-06
2.09916e-06
2.21991e-06
2.0576e-06
2.19194e-06
2.13811e-06
2.02165e-06
1.79118e-06
1.69061e-06
1.86172e-06
1.71249e-06
1.84581e-06
1.90428e-06
1.9633e-06
1.96446e-06
1.69362e-06
1.69291e-06
1.4442e-06
1.51249e-06
1.6905e-06
1.39447e-06
1.58457e-06
1.58662e-06
1.56921e-06
1.5607e-06
1.59618e-06
1.71237e-06
-3.93194e-09
-2.20333e-07
-2.09863e-07
-2.34248e-07
-3.1829e-07
-2.52129e-07
-2.29784e-07
-1.92006e-07
-2.64172e-07
-7.24463e-09
-1.26077e-06
-1.745e-06
-1.32376e-06
-1.41231e-06
-1.94629e-06
-1.48595e-06
-1.15807e-06
-1.52088e-06
-1.88515e-06
-1.21786e-06
-8.61956e-06
-8.69986e-06
-8.64132e-06
-8.64575e-06
-8.80406e-06
-8.58279e-06
-8.94691e-06
-8.85927e-06
-8.51077e-06
-8.56574e-06
-1.74617e-05
-1.71823e-05
-1.77414e-05
-1.72949e-05
-1.68844e-05
-1.7369e-05
-1.76696e-05
-1.73393e-05
-1.7144e-05
-1.7818e-05
-1.52595e-05
-1.53295e-05
-1.54435e-05
-1.51336e-05
-1.52488e-05
-1.52534e-05
-1.50608e-05
-1.49104e-05
-1.5427e-05
-1.54733e-05
-4.37011e-06
-4.55331e-06
-4.362e-06
-4.28353e-06
-4.30484e-06
-4.55163e-06
-4.23341e-06
-4.41522e-06
-4.42034e-06
-4.24641e-06
5.85656e-06
5.83388e-06
5.67018e-06
5.80286e-06
6.06767e-06
5.8727e-06
5.65197e-06
5.75596e-06
5.95217e-06
5.77861e-06
-9.66876e-10
-1.1426e-09
1.56285e-09
2.43384e-09
-1.6388e-10
1.40279e-09
-1.26858e-09
-2.53704e-10
2.53649e-09
2.32093e-09
-3.62139e-09
-1.68997e-09
3.55187e-09
1.90077e-09
2.2644e-10
5.06589e-09
-3.02652e-09
-1.09404e-10
5.89762e-09
7.55185e-09
-6.09301e-09
1.48199e-09
1.14831e-08
-4.09875e-09
-2.28791e-09
1.3346e-08
-5.35617e-09
2.95999e-09
7.47397e-09
6.78465e-09
-5.73188e-09
3.85357e-09
1.38003e-08
-5.85043e-09
3.1094e-09
1.24748e-08
-9.34241e-10
5.56474e-10
2.85591e-09
8.21483e-10
-2.87322e-10
9.18816e-09
1.56975e-08
-4.92378e-09
4.63923e-09
6.79164e-09
-9.91184e-10
-6.32701e-10
-3.25805e-09
5.35265e-09
4.03926e-10
8.85586e-09
1.05965e-08
-5.67108e-09
3.56111e-09
7.55141e-09
1.7984e-09
2.12895e-10
-5.19702e-09
4.69321e-09
-6.04137e-09
1.08004e-09
7.11556e-09
-9.18462e-09
2.19169e-09
7.13946e-09
2.05732e-09
3.64819e-09
-2.71722e-09
-3.77242e-09
-3.37726e-09
-1.54125e-09
9.79815e-10
-9.75003e-09
9.15834e-10
-5.95616e-10
-5.30503e-10
5.12682e-09
-3.13839e-10
-6.3387e-09
-4.77173e-09
1.29729e-08
-1.00521e-08
-7.62968e-09
2.33988e-09
-6.45396e-11
-6.25038e-09
-4.27705e-10
-5.32808e-09
-1.49738e-08
7.53631e-10
1.43427e-08
-1.46364e-08
5.10926e-09
6.10299e-10
-5.82745e-09
-8.02389e-09
-2.19201e-09
-2.17534e-09
-1.67787e-08
-5.81385e-09
1.38621e-09
-7.26951e-09
3.72281e-09
-5.37134e-09
-2.01024e-08
-1.7497e-08
3.87663e-09
3.23181e-09
-2.77037e-09
-1.76041e-09
6.52654e-10
-4.50158e-09
4.26291e-09
4.29839e-09
-1.36515e-08
-2.65987e-09
9.41038e-10
9.2603e-09
3.05961e-09
3.96446e-09
1.24076e-08
-5.14435e-09
3.45066e-09
1.16779e-08
-5.13599e-09
1.45893e-09
-1.12964e-08
8.49736e-09
7.72818e-09
-4.94415e-09
9.65135e-09
-8.21953e-09
-5.17264e-09
-4.46868e-09
-8.13641e-09
-1.39416e-08
-1.0023e-08
1.58284e-08
-8.87641e-09
-2.6072e-09
1.00256e-08
-2.0553e-09
3.01856e-09
6.82969e-09
3.60353e-09
-1.21048e-08
-2.87217e-09
2.26924e-08
-9.01754e-09
6.10983e-09
-1.46553e-08
4.07581e-09
1.68649e-08
4.29294e-09
6.21862e-09
7.61e-09
6.71836e-09
-1.34749e-09
9.52809e-09
1.25725e-08
-2.18457e-08
1.25022e-08
1.92379e-08
-1.8775e-08
1.18328e-08
7.62629e-09
9.68157e-09
-9.36957e-09
2.27955e-09
1.80971e-08
1.82647e-09
1.1636e-08
-3.07478e-10
1.66621e-08
2.4029e-09
4.65244e-09
1.57651e-08
4.09663e-10
1.4583e-08
1.40817e-08
6.74712e-09
-2.25163e-08
1.51549e-08
1.28402e-08
-6.80786e-09
-9.09349e-09
1.72496e-08
2.89246e-09
-6.39062e-09
1.3024e-08
6.0876e-09
3.68158e-09
9.86349e-09
-5.62614e-09
1.59449e-08
9.65644e-09
6.60534e-09
-1.2227e-09
2.2055e-08
2.2179e-09
2.28666e-08
2.2091e-08
1.4683e-09
1.96464e-08
1.85726e-08
2.52947e-08
-5.0328e-09
7.61429e-09
2.97297e-08
8.29543e-09
1.55703e-08
3.30336e-10
-1.98996e-09
2.35024e-09
-5.9729e-09
-7.62141e-10
-1.35207e-08
-2.18061e-09
-1.78698e-08
-9.47436e-09
1.50803e-08
-2.55889e-08
-1.56122e-08
1.17877e-09
-2.08157e-08
-2.70064e-08
-9.13701e-09
-2.0167e-08
-2.83254e-08
-1.83445e-08
-1.58957e-08
1.28886e-08
-1.66059e-08
-3.30628e-08
-3.36373e-09
-1.84007e-08
-1.01212e-08
-1.33879e-08
6.66889e-09
-2.23908e-09
-2.19857e-08
5.29834e-10
-7.98252e-09
-1.56178e-08
-1.97916e-08
1.31278e-09
-8.06265e-09
-3.10439e-08
1.05057e-08
-1.41279e-08
-3.00925e-08
-3.78217e-08
-1.88325e-08
-3.8281e-09
-2.17237e-08
-1.27062e-08
-9.23061e-09
-1.55928e-08
-3.85661e-08
9.29516e-09
6.21931e-09
5.50696e-09
1.21621e-08
-7.41862e-10
3.79454e-08
1.27533e-08
-8.23927e-09
2.6035e-08
3.32584e-09
3.32106e-09
-4.3898e-09
-1.08759e-08
-8.09972e-09
-1.31674e-08
-7.35416e-09
-1.26925e-08
-2.63179e-09
-2.18311e-09
-5.80774e-09
-1.74088e-08
-2.22918e-08
-1.94922e-08
-2.05552e-08
-1.75354e-08
2.0665e-09
-8.27208e-08
-3.08501e-08
-3.50228e-08
-3.5536e-08
-7.97734e-08
-7.54615e-08
-5.15595e-08
-1.12131e-07
-2.69283e-08
-6.54606e-08
-9.29308e-08
-6.45871e-08
-6.213e-08
-4.48043e-08
-1.33881e-08
-8.83923e-08
-2.89691e-08
-3.21478e-08
-5.46379e-08
-6.11001e-08
-9.87117e-09
-1.70836e-08
-8.71462e-08
-1.58794e-08
-1.71803e-07
-1.6548e-07
-2.05284e-07
-1.83378e-07
-2.18967e-07
-1.97197e-07
-2.10411e-07
-1.52911e-07
-1.82827e-07
-1.91549e-07
-9.23256e-08
-8.62731e-08
-1.78858e-07
-7.9719e-08
-1.61658e-07
-7.78606e-08
-3.58154e-08
-1.07942e-07
-1.04268e-07
-1.52634e-07
4.13016e-09
-1.25459e-08
-1.42168e-07
9.56818e-08
2.93855e-08
-1.22648e-07
1.30906e-07
-7.40921e-09
-3.36896e-08
-1.32864e-08
-1.31316e-07
-3.96469e-08
6.20794e-09
-1.23375e-07
-3.82549e-08
-1.27046e-07
-1.04404e-07
-5.87113e-08
7.09349e-10