/*--------------------------------*- C++ -*----------------------------------*\
| =========                 |                                                 |
| \\      /  F ield         | foam-extend: Open Source CFD                    |
|  \\    /   O peration     | Version:     3.2                                |
|   \\  /    A nd           | Web:         http://www.foam-extend.org         |
|    \\/     M anipulation  | For copyright notice see file Copyright         |
\*---------------------------------------------------------------------------*/
FoamFile
{
    version     2.0;
    format      ascii;
    class       volVectorField;
    location    "2000000";
    object      U;
}
// * * * * * * * * * * * * * * * * * * * * * * * * * * * * * * * * * * * * * //

dimensions      [0 1 -1 0 0 0 0];

internalField   nonuniform List<vector> 
5000
(
(5.1916 2.5716 -1.48616e-06)
(5.1916 2.5716 -1.49256e-06)
(5.19162 2.5716 -1.42067e-06)
(5.19163 2.5716 -1.25015e-06)
(5.19164 2.5716 -1.15107e-06)
(5.19164 2.5716 -9.39804e-07)
(5.19165 2.5716 -8.42581e-07)
(5.19165 2.57159 -6.1412e-07)
(5.19166 2.57159 -3.38529e-07)
(5.19165 2.57158 9.72159e-07)
(6.89136 3.29165 -3.31803e-06)
(6.89137 3.29165 -3.48193e-06)
(6.89138 3.29165 -3.59009e-06)
(6.89139 3.29165 -3.42839e-06)
(6.8914 3.29165 -3.31709e-06)
(6.8914 3.29165 -3.00921e-06)
(6.89141 3.29164 -2.72519e-06)
(6.89142 3.29164 -2.35321e-06)
(6.89142 3.29164 -1.31932e-06)
(6.89142 3.29163 1.41533e-06)
(7.92139 3.66498 -5.50341e-06)
(7.92139 3.66498 -5.74907e-06)
(7.9214 3.66498 -6.01145e-06)
(7.92141 3.66498 -5.86066e-06)
(7.92142 3.66498 -5.77694e-06)
(7.92142 3.66497 -5.36993e-06)
(7.92143 3.66497 -4.99815e-06)
(7.92144 3.66497 -4.43654e-06)
(7.92145 3.66497 -2.72482e-06)
(7.92144 3.66496 9.896e-07)
(8.71478 3.9074 -7.48176e-06)
(8.71479 3.90739 -7.82027e-06)
(8.7148 3.90739 -8.26376e-06)
(8.7148 3.90739 -8.17481e-06)
(8.71481 3.90739 -8.15221e-06)
(8.71482 3.90739 -7.71741e-06)
(8.71482 3.90739 -7.27768e-06)
(8.71483 3.90739 -6.57473e-06)
(8.71483 3.90738 -4.28805e-06)
(8.71483 3.90738 4.16265e-08)
(9.38777 4.07605 -9.47071e-06)
(9.38777 4.07605 -9.8716e-06)
(9.38778 4.07605 -1.04451e-05)
(9.38778 4.07605 -1.04032e-05)
(9.38779 4.07604 -1.04298e-05)
(9.3878 4.07604 -9.97086e-06)
(9.3878 4.07604 -9.48415e-06)
(9.38781 4.07604 -8.61959e-06)
(9.38781 4.07603 -5.9317e-06)
(9.38781 4.07603 -1.12904e-06)
(9.99071 4.19445 -1.1395e-05)
(9.99071 4.19445 -1.18445e-05)
(9.99072 4.19445 -1.25264e-05)
(9.99072 4.19445 -1.25362e-05)
(9.99073 4.19444 -1.26093e-05)
(9.99073 4.19444 -1.21382e-05)
(9.99074 4.19444 -1.16045e-05)
(9.99074 4.19444 -1.05894e-05)
(9.99075 4.19443 -7.58842e-06)
(9.99074 4.19443 -2.45301e-06)
(10.549 4.27371 -1.32753e-05)
(10.549 4.27371 -1.37619e-05)
(10.549 4.2737 -1.45245e-05)
(10.549 4.2737 -1.45831e-05)
(10.549 4.2737 -1.46985e-05)
(10.549 4.2737 -1.42157e-05)
(10.549 4.2737 -1.36442e-05)
(10.549 4.27369 -1.24803e-05)
(10.549 4.27369 -9.25531e-06)
(10.549 4.27369 -3.88608e-06)
(11.0767 4.31945 -1.50875e-05)
(11.0767 4.31944 -1.5605e-05)
(11.0767 4.31944 -1.64161e-05)
(11.0767 4.31944 -1.65273e-05)
(11.0767 4.31944 -1.66816e-05)
(11.0767 4.31944 -1.61953e-05)
(11.0767 4.31943 -1.55966e-05)
(11.0767 4.31943 -1.4296e-05)
(11.0767 4.31943 -1.09258e-05)
(11.0767 4.31942 -5.39876e-06)
(11.5819 4.33454 -1.68181e-05)
(11.5819 4.33453 -1.73601e-05)
(11.5819 4.33453 -1.81915e-05)
(11.5819 4.33453 -1.83572e-05)
(11.5819 4.33453 -1.85466e-05)
(11.5819 4.33452 -1.80582e-05)
(11.5819 4.33452 -1.74641e-05)
(11.5819 4.33452 -1.60357e-05)
(11.5819 4.33452 -1.25835e-05)
(11.5819 4.33451 -6.96448e-06)
(12.0693 4.32034 -1.84438e-05)
(12.0693 4.32034 -1.90019e-05)
(12.0693 4.32034 -1.98391e-05)
(12.0693 4.32034 -2.00598e-05)
(12.0693 4.32034 -2.02768e-05)
(12.0693 4.32033 -1.98046e-05)
(12.0693 4.32033 -1.91969e-05)
(12.0693 4.32033 -1.76872e-05)
(12.0693 4.32032 -1.42147e-05)
(12.0693 4.32032 -8.56266e-06)
(12.5412 4.27739 -1.99401e-05)
(12.5412 4.27739 -2.05055e-05)
(12.5412 4.27739 -2.13418e-05)
(12.5412 4.27738 -2.16176e-05)
(12.5412 4.27738 -2.18616e-05)
(12.5412 4.27738 -2.1412e-05)
(12.5412 4.27738 -2.07937e-05)
(12.5412 4.27737 -1.92338e-05)
(12.5412 4.27737 -1.57881e-05)
(12.5412 4.27736 -1.01637e-05)
(12.9986 4.20574 -2.12786e-05)
(12.9986 4.20573 -2.1843e-05)
(12.9986 4.20573 -2.26781e-05)
(12.9986 4.20573 -2.30099e-05)
(12.9986 4.20572 -2.32794e-05)
(12.9986 4.20572 -2.28583e-05)
(12.9986 4.20572 -2.22338e-05)
(12.9986 4.20571 -2.06589e-05)
(12.9986 4.20571 -1.72822e-05)
(12.9986 4.2057 -1.17423e-05)
(13.441 4.10522 -2.2429e-05)
(13.441 4.10522 -2.2986e-05)
(13.441 4.10522 -2.38244e-05)
(13.441 4.10521 -2.42116e-05)
(13.441 4.10521 -2.4504e-05)
(13.441 4.10521 -2.41167e-05)
(13.441 4.1052 -2.3496e-05)
(13.441 4.1052 -2.19398e-05)
(13.441 4.10519 -1.86701e-05)
(13.441 4.10519 -1.32696e-05)
(13.8673 3.97568 -2.33605e-05)
(13.8673 3.97568 -2.39073e-05)
(13.8673 3.97568 -2.47549e-05)
(13.8673 3.97567 -2.51947e-05)
(13.8673 3.97567 -2.55056e-05)
(13.8673 3.97566 -2.51577e-05)
(13.8673 3.97566 -2.45533e-05)
(13.8673 3.97566 -2.30476e-05)
(13.8673 3.97565 -1.99205e-05)
(13.8673 3.97565 -1.47139e-05)
(14.2754 3.81709 -2.4042e-05)
(14.2754 3.81709 -2.45798e-05)
(14.2754 3.81708 -2.54409e-05)
(14.2754 3.81708 -2.59282e-05)
(14.2754 3.81708 -2.62514e-05)
(14.2754 3.81707 -2.59496e-05)
(14.2754 3.81707 -2.53745e-05)
(14.2754 3.81706 -2.3948e-05)
(14.2754 3.81706 -2.09979e-05)
(14.2754 3.81705 -1.60389e-05)
(14.6626 3.62971 -2.44422e-05)
(14.6626 3.62971 -2.49743e-05)
(14.6626 3.6297 -2.58501e-05)
(14.6626 3.6297 -2.63787e-05)
(14.6626 3.6297 -2.67084e-05)
(14.6626 3.62969 -2.64595e-05)
(14.6626 3.62969 -2.59256e-05)
(14.6626 3.62968 -2.46033e-05)
(14.6626 3.62968 -2.1863e-05)
(14.6626 3.62967 -1.72036e-05)
(15.0257 3.41423 -2.45257e-05)
(15.0257 3.41423 -2.50546e-05)
(15.0257 3.41423 -2.59437e-05)
(15.0257 3.41422 -2.6509e-05)
(15.0257 3.41422 -2.68414e-05)
(15.0257 3.41421 -2.66523e-05)
(15.0257 3.41421 -2.61696e-05)
(15.0257 3.4142 -2.49729e-05)
(15.0257 3.4142 -2.24726e-05)
(15.0257 3.41419 -1.81618e-05)
(15.3611 3.17191 -2.4256e-05)
(15.3611 3.17191 -2.47823e-05)
(15.3611 3.17191 -2.56819e-05)
(15.3611 3.1719 -2.62815e-05)
(15.3611 3.1719 -2.6616e-05)
(15.3611 3.17189 -2.64929e-05)
(15.3611 3.17189 -2.60694e-05)
(15.3611 3.17188 -2.50163e-05)
(15.3611 3.17188 -2.2782e-05)
(15.3611 3.17187 -1.88643e-05)
(15.6647 2.9047 -2.35906e-05)
(15.6647 2.9047 -2.41127e-05)
(15.6647 2.9047 -2.50201e-05)
(15.6647 2.90469 -2.56545e-05)
(15.6647 2.90469 -2.59937e-05)
(15.6647 2.90468 -2.59414e-05)
(15.6648 2.90468 -2.55846e-05)
(15.6648 2.90467 -2.469e-05)
(15.6648 2.90467 -2.27431e-05)
(15.6647 2.90466 -1.9257e-05)
(15.9325 2.61539 -2.24943e-05)
(15.9325 2.61539 -2.30099e-05)
(15.9325 2.61538 -2.39225e-05)
(15.9325 2.61538 -2.45945e-05)
(15.9325 2.61537 -2.49433e-05)
(15.9325 2.61537 -2.49646e-05)
(15.9325 2.61536 -2.46813e-05)
(15.9325 2.61536 -2.39563e-05)
(15.9326 2.61535 -2.23118e-05)
(15.9325 2.61534 -1.92885e-05)
(16.1604 2.30771 -2.09238e-05)
(16.1604 2.30771 -2.1431e-05)
(16.1604 2.3077 -2.23475e-05)
(16.1604 2.3077 -2.3062e-05)
(16.1604 2.30769 -2.3428e-05)
(16.1604 2.30769 -2.35242e-05)
(16.1604 2.30768 -2.33214e-05)
(16.1604 2.30768 -2.27735e-05)
(16.1604 2.30767 -2.14411e-05)
(16.1604 2.30766 -1.89039e-05)
(16.3445 1.98645 -1.88623e-05)
(16.3444 1.98645 -1.93597e-05)
(16.3444 1.98644 -2.02803e-05)
(16.3444 1.98644 -2.10437e-05)
(16.3444 1.98643 -2.14364e-05)
(16.3444 1.98643 -2.16054e-05)
(16.3445 1.98642 -2.14883e-05)
(16.3444 1.98642 -2.11181e-05)
(16.3445 1.98641 -2.00988e-05)
(16.3444 1.9864 -1.80602e-05)
(16.4814 1.65751 -1.62814e-05)
(16.4814 1.65751 -1.67694e-05)
(16.4814 1.65751 -1.76961e-05)
(16.4814 1.6575 -1.85193e-05)
(16.4814 1.6575 -1.89533e-05)
(16.4814 1.65749 -1.91931e-05)
(16.4814 1.65748 -1.91686e-05)
(16.4814 1.65748 -1.89719e-05)
(16.4814 1.65747 -1.82612e-05)
(16.4814 1.65746 -1.67228e-05)
(16.5688 1.32793 -1.32106e-05)
(16.5688 1.32793 -1.36889e-05)
(16.5688 1.32792 -1.46319e-05)
(16.5688 1.32792 -1.55086e-05)
(16.5688 1.32791 -1.60093e-05)
(16.5687 1.32791 -1.63007e-05)
(16.5688 1.3279 -1.63777e-05)
(16.5687 1.3279 -1.63345e-05)
(16.5688 1.32789 -1.59152e-05)
(16.5687 1.32788 -1.48733e-05)
(16.6053 1.00579 -9.69655e-06)
(16.6053 1.00579 -1.01635e-05)
(16.6053 1.00579 -1.11272e-05)
(16.6053 1.00578 -1.20652e-05)
(16.6053 1.00578 -1.26275e-05)
(16.6053 1.00577 -1.29841e-05)
(16.6053 1.00577 -1.31663e-05)
(16.6053 1.00576 -1.32535e-05)
(16.6053 1.00575 -1.31146e-05)
(16.6053 1.00574 -1.25354e-05)
(16.5915 0.700085 -5.92213e-06)
(16.5915 0.700083 -6.3754e-06)
(16.5915 0.700078 -7.3648e-06)
(16.5915 0.700074 -8.38154e-06)
(16.5915 0.700068 -9.01262e-06)
(16.5915 0.700064 -9.4482e-06)
(16.5915 0.700058 -9.72387e-06)
(16.5915 0.700053 -9.90652e-06)
(16.5915 0.700045 -1.00235e-05)
(16.5915 0.700036 -9.8567e-06)
(16.53 0.420334 -2.13676e-06)
(16.53 0.420332 -2.57728e-06)
(16.53 0.420328 -3.61148e-06)
(16.53 0.420324 -4.72094e-06)
(16.53 0.420318 -5.45249e-06)
(16.53 0.420314 -5.95788e-06)
(16.53 0.420308 -6.30992e-06)
(16.5299 0.420304 -6.54847e-06)
(16.5299 0.420296 -6.89519e-06)
(16.5299 0.420287 -7.07009e-06)
(16.4257 0.176103 1.40968e-06)
(16.4257 0.176101 9.73731e-07)
(16.4257 0.176097 -1.33145e-07)
(16.4257 0.176093 -1.35848e-06)
(16.4257 0.176088 -2.21218e-06)
(16.4257 0.176084 -2.77119e-06)
(16.4257 0.176078 -3.18498e-06)
(16.4257 0.176074 -3.42838e-06)
(16.4257 0.176066 -3.95044e-06)
(16.4257 0.176059 -4.37428e-06)
(16.2867 -0.0237672 4.627e-06)
(16.2867 -0.0237689 4.17539e-06)
(16.2867 -0.0237727 2.9498e-06)
(16.2867 -0.0237763 1.57419e-06)
(16.2867 -0.0237813 5.64392e-07)
(16.2867 -0.0237847 -4.35574e-08)
(16.2867 -0.0237903 -5.05377e-07)
(16.2867 -0.0237939 -6.8714e-07)
(16.2867 -0.0238013 -1.33243e-06)
(16.2866 -0.0238084 -1.89481e-06)
(16.1239 -0.172154 6.37916e-06)
(16.1239 -0.172156 5.91016e-06)
(16.1238 -0.17216 4.5603e-06)
(16.1238 -0.172163 3.04343e-06)
(16.1238 -0.172168 1.91414e-06)
(16.1238 -0.172171 1.30219e-06)
(16.1238 -0.172176 8.69699e-07)
(16.1238 -0.172179 8.26121e-07)
(16.1238 -0.172187 1.2229e-07)
(16.1238 -0.172193 -6.13549e-07)
(15.9509 -0.264893 6.6889e-06)
(15.9509 -0.264894 6.20462e-06)
(15.9509 -0.264897 4.71099e-06)
(15.9509 -0.2649 3.04064e-06)
(15.9508 -0.264905 1.76344e-06)
(15.9508 -0.264908 1.13049e-06)
(15.9508 -0.264913 8.16982e-07)
(15.9508 -0.264916 9.69464e-07)
(15.9508 -0.264922 2.57215e-07)
(15.9508 -0.264928 -6.28471e-07)
(15.7832 -0.302105 7.6634e-06)
(15.7832 -0.302106 7.2021e-06)
(15.7832 -0.302109 5.67153e-06)
(15.7832 -0.302112 3.92406e-06)
(15.7832 -0.302116 2.60376e-06)
(15.7832 -0.302118 2.01407e-06)
(15.7832 -0.302123 1.9006e-06)
(15.7832 -0.302125 2.58039e-06)
(15.7832 -0.302131 2.19777e-06)
(15.7832 -0.302136 1.14577e-06)
(15.6369 -0.289455 8.08557e-06)
(15.6369 -0.289456 7.70959e-06)
(15.6369 -0.289459 6.22002e-06)
(15.6369 -0.289462 4.76628e-06)
(15.6369 -0.289465 3.70721e-06)
(15.6369 -0.289468 3.17147e-06)
(15.6369 -0.289472 3.02088e-06)
(15.6369 -0.289475 3.40098e-06)
(15.6369 -0.289478 3.09498e-06)
(15.6368 -0.289483 1.25402e-06)
(15.5258 -0.238848 9.39992e-06)
(15.5258 -0.238848 9.20077e-06)
(15.5258 -0.23885 8.38611e-06)
(15.5257 -0.238853 7.52884e-06)
(15.5257 -0.238855 7.16393e-06)
(15.5257 -0.238859 6.92817e-06)
(15.5257 -0.238862 6.41678e-06)
(15.5257 -0.238865 5.45349e-06)
(15.5257 -0.238867 4.29322e-06)
(15.5257 -0.238871 2.23671e-06)
(15.4584 -0.167906 1.06466e-05)
(15.4584 -0.167906 1.06971e-05)
(15.4584 -0.167907 1.06271e-05)
(15.4584 -0.167908 1.07515e-05)
(15.4584 -0.167909 1.12099e-05)
(15.4584 -0.167911 1.11996e-05)
(15.4584 -0.167912 1.084e-05)
(15.4584 -0.167913 9.26044e-06)
(15.4584 -0.167915 6.90571e-06)
(15.4584 -0.167916 5.108e-06)
(15.4348 -0.0973199 1.23771e-05)
(15.4348 -0.0973196 1.26483e-05)
(15.4348 -0.0973193 1.31465e-05)
(15.4348 -0.0973182 1.45739e-05)
(15.4348 -0.0973181 1.51577e-05)
(15.4348 -0.0973173 1.5732e-05)
(15.4348 -0.0973178 1.49291e-05)
(15.4348 -0.0973172 1.40139e-05)
(15.4348 -0.0973164 1.2237e-05)
(15.4347 -0.0973152 1.08785e-05)
(15.4441 -0.0454071 1.33759e-05)
(15.4441 -0.0454064 1.36801e-05)
(15.4441 -0.0454051 1.47567e-05)
(15.4441 -0.0454025 1.61934e-05)
(15.4441 -0.0454008 1.65409e-05)
(15.4441 -0.0453985 1.66349e-05)
(15.4441 -0.0453966 1.64724e-05)
(15.444 -0.045395 1.58129e-05)
(15.444 -0.0453907 1.52262e-05)
(15.444 -0.0453862 1.47605e-05)
(15.4673 -0.0208583 1.42131e-05)
(15.4673 -0.0208572 1.4619e-05)
(15.4673 -0.0208539 1.64073e-05)
(15.4673 -0.0208507 1.77965e-05)
(15.4673 -0.020846 1.8405e-05)
(15.4673 -0.0208427 1.84237e-05)
(15.4672 -0.0208378 1.81764e-05)
(15.4672 -0.0208352 1.78394e-05)
(15.4672 -0.0208284 1.75075e-05)
(15.4672 -0.0208228 1.69854e-05)
(15.4859 -0.0184383 1.23419e-05)
(15.4859 -0.0184368 1.28763e-05)
(15.4859 -0.018433 1.45219e-05)
(15.4859 -0.0184294 1.59761e-05)
(15.4859 -0.018424 1.6674e-05)
(15.4859 -0.0184209 1.66599e-05)
(15.4859 -0.0184147 1.63019e-05)
(15.4858 -0.0184118 1.57786e-05)
(15.4858 -0.0184035 1.5476e-05)
(15.4858 -0.0183965 1.49842e-05)
(15.4922 -0.0239565 1.17467e-05)
(15.4922 -0.0239545 1.22883e-05)
(15.4922 -0.0239502 1.3653e-05)
(15.4922 -0.0239463 1.49484e-05)
(15.4922 -0.0239405 1.57079e-05)
(15.4922 -0.0239369 1.59401e-05)
(15.4922 -0.0239305 1.60959e-05)
(15.4922 -0.0239267 1.59828e-05)
(15.4922 -0.0239182 1.63178e-05)
(15.4922 -0.02391 1.61833e-05)
(15.491 -0.0264838 1.12031e-05)
(15.491 -0.0264814 1.16545e-05)
(15.491 -0.026477 1.27482e-05)
(15.491 -0.0264728 1.37821e-05)
(15.491 -0.0264672 1.44915e-05)
(15.491 -0.026463 1.48297e-05)
(15.491 -0.026457 1.52229e-05)
(15.491 -0.0264526 1.53236e-05)
(15.491 -0.0264442 1.5822e-05)
(15.491 -0.0264354 1.59315e-05)
(15.4898 -0.025207 1.07287e-05)
(15.4898 -0.0252044 1.10562e-05)
(15.4898 -0.0252005 1.18505e-05)
(15.4898 -0.0251958 1.26504e-05)
(15.4898 -0.0251913 1.32128e-05)
(15.4898 -0.0251864 1.35936e-05)
(15.4898 -0.0251818 1.40345e-05)
(15.4898 -0.0251764 1.42773e-05)
(15.4898 -0.0251694 1.4808e-05)
(15.4898 -0.0251599 1.52751e-05)
(15.4905 -0.023679 8.88436e-06)
(15.4905 -0.0236766 9.06048e-06)
(15.4905 -0.023673 9.573e-06)
(15.4905 -0.023669 1.00521e-05)
(15.4905 -0.0236647 1.05015e-05)
(15.4905 -0.0236604 1.07961e-05)
(15.4905 -0.0236561 1.11726e-05)
(15.4905 -0.0236516 1.13882e-05)
(15.4905 -0.0236447 1.18855e-05)
(15.4905 -0.0236368 1.25672e-05)
(15.4918 -0.0233149 7.13627e-06)
(15.4918 -0.0233128 7.1673e-06)
(15.4918 -0.0233097 7.39834e-06)
(15.4918 -0.0233061 7.61047e-06)
(15.4918 -0.0233026 7.91649e-06)
(15.4918 -0.0232986 8.14122e-06)
(15.4918 -0.023295 8.3697e-06)
(15.4918 -0.0232908 8.53001e-06)
(15.4918 -0.0232849 8.87705e-06)
(15.4918 -0.0232776 9.58811e-06)
(15.4928 -0.0238136 5.38014e-06)
(15.4928 -0.0238118 5.32402e-06)
(15.4928 -0.023809 5.31556e-06)
(15.4928 -0.0238057 5.35557e-06)
(15.4928 -0.0238025 5.53668e-06)
(15.4928 -0.0237991 5.72533e-06)
(15.4928 -0.0237958 5.85267e-06)
(15.4928 -0.023792 6.00098e-06)
(15.4928 -0.0237867 6.24307e-06)
(15.4928 -0.0237801 6.79849e-06)
(15.4932 -0.0246097 3.73626e-06)
(15.4932 -0.0246082 3.65607e-06)
(15.4932 -0.0246054 3.54032e-06)
(15.4932 -0.0246021 3.48478e-06)
(15.4932 -0.024599 3.5746e-06)
(15.4931 -0.0245957 3.71367e-06)
(15.4931 -0.0245926 3.78877e-06)
(15.4931 -0.0245889 3.93638e-06)
(15.4931 -0.0245838 4.1207e-06)
(15.4931 -0.0245774 4.48781e-06)
(15.493 -0.0252424 2.07851e-06)
(15.493 -0.0252409 2.03249e-06)
(15.493 -0.0252378 1.93208e-06)
(15.493 -0.025235 1.88393e-06)
(15.493 -0.025231 1.92742e-06)
(15.493 -0.0252283 2.00421e-06)
(15.493 -0.0252241 2.08707e-06)
(15.493 -0.0252211 2.19746e-06)
(15.493 -0.0252148 2.34673e-06)
(15.493 -0.0252094 2.47088e-06)
(15.4926 -0.0255413 1.63556e-06)
(15.4926 -0.0255397 1.62566e-06)
(15.4926 -0.0255367 1.58651e-06)
(15.4926 -0.0255331 1.57988e-06)
(15.4926 -0.0255297 1.58665e-06)
(15.4926 -0.0255261 1.64646e-06)
(15.4926 -0.0255227 1.67514e-06)
(15.4926 -0.0255188 1.77093e-06)
(15.4926 -0.0255134 1.83108e-06)
(15.4926 -0.0255065 1.87343e-06)
(15.4924 -0.0256121 6.46152e-07)
(15.4924 -0.0256104 6.5142e-07)
(15.4924 -0.025607 6.52373e-07)
(15.4924 -0.025604 6.51626e-07)
(15.4924 -0.0255997 6.55507e-07)
(15.4924 -0.0255969 6.75306e-07)
(15.4924 -0.0255923 6.97993e-07)
(15.4924 -0.0255891 7.39647e-07)
(15.4924 -0.0255824 8.04441e-07)
(15.4924 -0.0255765 8.40447e-07)
(15.4923 -0.0256129 2.09299e-07)
(15.4923 -0.0256112 2.13102e-07)
(15.4923 -0.0256078 2.17297e-07)
(15.4923 -0.0256048 2.15547e-07)
(15.4923 -0.0256004 2.13978e-07)
(15.4923 -0.0255975 2.1747e-07)
(15.4923 -0.025593 2.23086e-07)
(15.4923 -0.0255898 2.36023e-07)
(15.4923 -0.0255831 2.57192e-07)
(15.4923 -0.025577 2.90779e-07)
(5.1916 2.5716 -1.7909e-06)
(5.19161 2.5716 -1.75087e-06)
(5.19162 2.5716 -1.68198e-06)
(5.19163 2.5716 -1.5085e-06)
(5.19164 2.5716 -1.42425e-06)
(5.19165 2.5716 -1.2235e-06)
(5.19166 2.57159 -1.12908e-06)
(5.19166 2.57159 -8.74336e-07)
(5.19167 2.57159 -6.25044e-07)
(5.19166 2.57158 7.08191e-07)
(6.89137 3.29165 -3.84235e-06)
(6.89138 3.29165 -3.94588e-06)
(6.89139 3.29165 -4.06938e-06)
(6.8914 3.29165 -3.90174e-06)
(6.8914 3.29165 -3.82959e-06)
(6.89141 3.29164 -3.50902e-06)
(6.89142 3.29164 -3.25156e-06)
(6.89143 3.29164 -2.8328e-06)
(6.89143 3.29163 -1.83681e-06)
(6.89143 3.29163 9.24654e-07)
(7.9214 3.66498 -6.06763e-06)
(7.9214 3.66498 -6.24652e-06)
(7.92141 3.66498 -6.51148e-06)
(7.92142 3.66498 -6.35708e-06)
(7.92143 3.66498 -6.31786e-06)
(7.92143 3.66497 -5.90424e-06)
(7.92144 3.66497 -5.56529e-06)
(7.92145 3.66497 -4.94824e-06)
(7.92146 3.66496 -3.27929e-06)
(7.92145 3.66496 4.56293e-07)
(8.71479 3.90739 -7.94745e-06)
(8.7148 3.90739 -8.21522e-06)
(8.7148 3.90739 -8.64438e-06)
(8.71481 3.90739 -8.554e-06)
(8.71482 3.90739 -8.58007e-06)
(8.71482 3.90739 -8.13483e-06)
(8.71483 3.90739 -7.74141e-06)
(8.71484 3.90738 -6.97678e-06)
(8.71484 3.90738 -4.75294e-06)
(8.71484 3.90737 -3.67393e-07)
(9.38777 4.07605 -9.71955e-06)
(9.38778 4.07605 -1.00515e-05)
(9.38779 4.07605 -1.05939e-05)
(9.38779 4.07605 -1.05543e-05)
(9.3878 4.07604 -1.06232e-05)
(9.38781 4.07604 -1.0161e-05)
(9.38781 4.07604 -9.72454e-06)
(9.38782 4.07604 -8.8019e-06)
(9.38782 4.07603 -6.18104e-06)
(9.38782 4.07603 -1.28257e-06)
(9.99071 4.19445 -1.13347e-05)
(9.99072 4.19445 -1.17167e-05)
(9.99072 4.19445 -1.23526e-05)
(9.99073 4.19445 -1.23665e-05)
(9.99074 4.19445 -1.24726e-05)
(9.99074 4.19444 -1.20061e-05)
(9.99075 4.19444 -1.15267e-05)
(9.99075 4.19444 -1.04607e-05)
(9.99076 4.19443 -7.51304e-06)
(9.99075 4.19443 -2.2699e-06)
(10.549 4.27371 -1.28236e-05)
(10.549 4.27371 -1.3243e-05)
(10.549 4.27371 -1.39518e-05)
(10.549 4.2737 -1.40132e-05)
(10.549 4.2737 -1.41504e-05)
(10.549 4.2737 -1.36788e-05)
(10.549 4.2737 -1.31664e-05)
(10.549 4.27369 -1.19582e-05)
(10.549 4.27369 -8.77696e-06)
(10.549 4.27369 -3.2933e-06)
(11.0767 4.31945 -1.41738e-05)
(11.0767 4.31944 -1.46231e-05)
(11.0767 4.31944 -1.538e-05)
(11.0767 4.31944 -1.54887e-05)
(11.0767 4.31944 -1.56537e-05)
(11.0767 4.31944 -1.51795e-05)
(11.0767 4.31944 -1.46452e-05)
(11.0767 4.31943 -1.33098e-05)
(11.0767 4.31943 -9.97417e-06)
(11.0767 4.31942 -4.3353e-06)
(11.5819 4.33454 -1.53789e-05)
(11.5819 4.33453 -1.58532e-05)
(11.5819 4.33453 -1.6633e-05)
(11.5819 4.33453 -1.67877e-05)
(11.5819 4.33453 -1.69777e-05)
(11.5819 4.33453 -1.64995e-05)
(11.5819 4.33453 -1.59703e-05)
(11.5819 4.33452 -1.45221e-05)
(11.5819 4.33452 -1.10989e-05)
(11.5819 4.33451 -5.37644e-06)
(12.0693 4.32035 -1.64225e-05)
(12.0693 4.32034 -1.69161e-05)
(12.0693 4.32034 -1.77026e-05)
(12.0693 4.32034 -1.79024e-05)
(12.0693 4.32034 -1.81114e-05)
(12.0693 4.32034 -1.76461e-05)
(12.0693 4.32033 -1.71049e-05)
(12.0693 4.32033 -1.55882e-05)
(12.0693 4.32033 -1.2143e-05)
(12.0693 4.32032 -6.40047e-06)
(12.5412 4.2774 -1.7286e-05)
(12.5412 4.27739 -1.77924e-05)
(12.5412 4.27739 -1.85759e-05)
(12.5412 4.27739 -1.88212e-05)
(12.5412 4.27739 -1.9047e-05)
(12.5412 4.27738 -1.86076e-05)
(12.5412 4.27738 -1.80465e-05)
(12.5412 4.27738 -1.64949e-05)
(12.5412 4.27737 -1.30825e-05)
(12.5412 4.27737 -7.38403e-06)
(12.9986 4.20574 -1.79454e-05)
(12.9986 4.20574 -1.84578e-05)
(12.9986 4.20573 -1.92346e-05)
(12.9986 4.20573 -1.95261e-05)
(12.9986 4.20573 -1.97701e-05)
(12.9986 4.20573 -1.93607e-05)
(12.9986 4.20572 -1.87866e-05)
(12.9986 4.20572 -1.72324e-05)
(12.9986 4.20571 -1.38979e-05)
(12.9986 4.20571 -8.30348e-06)
(13.441 4.10522 -1.83732e-05)
(13.441 4.10522 -1.88862e-05)
(13.441 4.10522 -1.9657e-05)
(13.441 4.10522 -1.99965e-05)
(13.441 4.10521 -2.02589e-05)
(13.441 4.10521 -1.98842e-05)
(13.441 4.10521 -1.93057e-05)
(13.441 4.1052 -1.77819e-05)
(13.441 4.1052 -1.45648e-05)
(13.441 4.10519 -9.13229e-06)
(13.8673 3.97569 -1.85397e-05)
(13.8673 3.97568 -1.90506e-05)
(13.8673 3.97568 -1.98201e-05)
(13.8673 3.97568 -2.0208e-05)
(13.8673 3.97567 -2.04887e-05)
(13.8673 3.97567 -2.01529e-05)
(13.8673 3.97567 -1.95817e-05)
(13.8673 3.97566 -1.81191e-05)
(13.8673 3.97566 -1.50547e-05)
(13.8673 3.97565 -9.84036e-06)
(14.2754 3.8171 -1.84137e-05)
(14.2754 3.81709 -1.89241e-05)
(14.2754 3.81709 -1.96992e-05)
(14.2754 3.81709 -2.01352e-05)
(14.2754 3.81708 -2.04328e-05)
(14.2754 3.81708 -2.01406e-05)
(14.2754 3.81708 -1.95893e-05)
(14.2754 3.81707 -1.82149e-05)
(14.2754 3.81707 -1.53353e-05)
(14.2754 3.81706 -1.03938e-05)
(14.6626 3.62972 -1.79649e-05)
(14.6626 3.62971 -1.84794e-05)
(14.6626 3.62971 -1.92683e-05)
(14.6626 3.62971 -1.97509e-05)
(14.6626 3.6297 -2.00633e-05)
(14.6626 3.6297 -1.98209e-05)
(14.6626 3.6297 -1.93023e-05)
(14.6626 3.62969 -1.80385e-05)
(14.6626 3.62969 -1.53731e-05)
(14.6626 3.62968 -1.07561e-05)
(15.0257 3.41424 -1.71632e-05)
(15.0257 3.41424 -1.76866e-05)
(15.0257 3.41423 -1.84969e-05)
(15.0257 3.41423 -1.90246e-05)
(15.0258 3.41423 -1.93497e-05)
(15.0258 3.41422 -1.91652e-05)
(15.0258 3.41422 -1.86917e-05)
(15.0258 3.41421 -1.75575e-05)
(15.0258 3.41421 -1.51328e-05)
(15.0258 3.4142 -1.08876e-05)
(15.3611 3.17192 -1.59818e-05)
(15.3611 3.17192 -1.65157e-05)
(15.3611 3.17191 -1.7353e-05)
(15.3611 3.17191 -1.79257e-05)
(15.3611 3.17191 -1.82625e-05)
(15.3611 3.1719 -1.81446e-05)
(15.3611 3.1719 -1.77285e-05)
(15.3611 3.17189 -1.67398e-05)
(15.3611 3.17189 -1.45794e-05)
(15.3611 3.17188 -1.07477e-05)
(15.6648 2.90471 -1.43907e-05)
(15.6648 2.90471 -1.49335e-05)
(15.6648 2.90471 -1.58012e-05)
(15.6648 2.9047 -1.6421e-05)
(15.6648 2.9047 -1.67706e-05)
(15.6648 2.90469 -1.67275e-05)
(15.6648 2.90469 -1.63803e-05)
(15.6648 2.90468 -1.55511e-05)
(15.6648 2.90468 -1.36759e-05)
(15.6648 2.90467 -1.02933e-05)
(15.9326 2.6154 -1.23695e-05)
(15.9326 2.6154 -1.29173e-05)
(15.9326 2.61539 -1.38162e-05)
(15.9326 2.61539 -1.44871e-05)
(15.9326 2.61539 -1.48531e-05)
(15.9326 2.61538 -1.48902e-05)
(15.9326 2.61538 -1.4622e-05)
(15.9326 2.61537 -1.39636e-05)
(15.9326 2.61536 -1.239e-05)
(15.9326 2.61535 -9.48479e-06)
(16.1604 2.30772 -9.89172e-06)
(16.1604 2.30772 -1.04402e-05)
(16.1604 2.30772 -1.13699e-05)
(16.1604 2.30771 -1.20981e-05)
(16.1604 2.30771 -1.24868e-05)
(16.1604 2.3077 -1.26073e-05)
(16.1604 2.3077 -1.24266e-05)
(16.1604 2.30769 -1.19471e-05)
(16.1604 2.30768 -1.06873e-05)
(16.1604 2.30767 -8.28029e-06)
(16.3445 1.98646 -6.96329e-06)
(16.3445 1.98646 -7.50818e-06)
(16.3445 1.98646 -8.46707e-06)
(16.3445 1.98645 -9.25914e-06)
(16.3445 1.98645 -9.67895e-06)
(16.3445 1.98644 -9.88254e-06)
(16.3445 1.98644 -9.79502e-06)
(16.3445 1.98643 -9.49604e-06)
(16.3445 1.98642 -8.55469e-06)
(16.3445 1.98641 -6.65627e-06)
(16.4814 1.65753 -3.5826e-06)
(16.4814 1.65752 -4.12082e-06)
(16.4814 1.65752 -5.10673e-06)
(16.4814 1.65751 -5.97219e-06)
(16.4814 1.65751 -6.43428e-06)
(16.4814 1.6575 -6.71918e-06)
(16.4814 1.6575 -6.73069e-06)
(16.4814 1.65749 -6.60916e-06)
(16.4814 1.65748 -5.98599e-06)
(16.4814 1.65747 -4.59703e-06)
(16.5688 1.32794 1.78441e-07)
(16.5688 1.32794 -3.51641e-07)
(16.5688 1.32793 -1.36211e-06)
(16.5688 1.32793 -2.31179e-06)
(16.5688 1.32792 -2.82245e-06)
(16.5688 1.32792 -3.18304e-06)
(16.5688 1.32791 -3.28906e-06)
(16.5688 1.32791 -3.3311e-06)
(16.5688 1.3279 -3.01167e-06)
(16.5688 1.32789 -2.12152e-06)
(16.6054 1.00581 4.22785e-06)
(16.6054 1.0058 3.70829e-06)
(16.6054 1.0058 2.68188e-06)
(16.6054 1.00579 1.62521e-06)
(16.6054 1.00579 1.07705e-06)
(16.6053 1.00578 6.31287e-07)
(16.6054 1.00578 4.38566e-07)
(16.6053 1.00577 2.45071e-07)
(16.6054 1.00577 2.86204e-07)
(16.6053 1.00576 7.12724e-07)
(16.5916 0.700097 8.22383e-06)
(16.5916 0.700095 7.72038e-06)
(16.5916 0.70009 6.64742e-06)
(16.5916 0.700086 5.55988e-06)
(16.5916 0.70008 4.88559e-06)
(16.5916 0.700076 4.41034e-06)
(16.5916 0.70007 4.07829e-06)
(16.5916 0.700065 3.81144e-06)
(16.5916 0.700057 3.57764e-06)
(16.5916 0.700048 3.59257e-06)
(16.53 0.420345 1.16941e-05)
(16.53 0.420342 1.12116e-05)
(16.53 0.420338 1.01059e-05)
(16.53 0.420334 8.93349e-06)
(16.53 0.420328 8.16664e-06)
(16.53 0.420324 7.61933e-06)
(16.53 0.420318 7.19888e-06)
(16.53 0.420314 6.87214e-06)
(16.53 0.420306 6.39181e-06)
(16.53 0.420297 6.06298e-06)
(16.4257 0.176111 1.40392e-05)
(16.4257 0.176109 1.35821e-05)
(16.4257 0.176105 1.24329e-05)
(16.4257 0.176101 1.11701e-05)
(16.4257 0.176095 1.02882e-05)
(16.4257 0.176092 9.69024e-06)
(16.4257 0.176086 9.20074e-06)
(16.4257 0.176082 8.85363e-06)
(16.4257 0.176074 8.17372e-06)
(16.4257 0.176066 7.59218e-06)
(16.2867 -0.0237633 1.53066e-05)
(16.2867 -0.023765 1.48637e-05)
(16.2867 -0.0237689 1.36438e-05)
(16.2867 -0.0237725 1.22719e-05)
(16.2867 -0.0237776 1.12511e-05)
(16.2867 -0.0237811 1.06041e-05)
(16.2867 -0.0237867 1.0045e-05)
(16.2867 -0.0237904 9.72394e-06)
(16.2867 -0.023798 8.89517e-06)
(16.2867 -0.0238053 8.16179e-06)
(16.1239 -0.172156 1.43805e-05)
(16.1239 -0.172158 1.39351e-05)
(16.1239 -0.172161 1.26293e-05)
(16.1239 -0.172164 1.11467e-05)
(16.1239 -0.172169 1.00409e-05)
(16.1239 -0.172173 9.39123e-06)
(16.1238 -0.172178 8.81335e-06)
(16.1238 -0.172181 8.57742e-06)
(16.1238 -0.172188 7.66972e-06)
(16.1238 -0.172195 6.7593e-06)
(15.9509 -0.264896 1.2194e-05)
(15.9509 -0.264897 1.17554e-05)
(15.9508 -0.2649 1.0303e-05)
(15.9508 -0.264904 8.7292e-06)
(15.9508 -0.264908 7.53278e-06)
(15.9508 -0.264911 6.87271e-06)
(15.9508 -0.264916 6.32963e-06)
(15.9508 -0.264919 6.26913e-06)
(15.9508 -0.264926 5.39796e-06)
(15.9508 -0.264931 4.34799e-06)
(15.7832 -0.302109 1.06411e-05)
(15.7832 -0.30211 1.01771e-05)
(15.7832 -0.302112 8.79378e-06)
(15.7832 -0.302116 6.95156e-06)
(15.7832 -0.302119 5.98986e-06)
(15.7832 -0.302124 4.9584e-06)
(15.7832 -0.302127 4.59032e-06)
(15.7832 -0.302131 4.6646e-06)
(15.7832 -0.302134 4.63813e-06)
(15.7832 -0.30214 3.45306e-06)
(15.6369 -0.289459 9.79399e-06)
(15.6369 -0.28946 9.39757e-06)
(15.6369 -0.289462 8.10958e-06)
(15.6369 -0.289466 6.45043e-06)
(15.6369 -0.289468 5.77664e-06)
(15.6369 -0.289472 5.25234e-06)
(15.6369 -0.289475 4.93166e-06)
(15.6369 -0.289479 4.94706e-06)
(15.6369 -0.289483 4.28348e-06)
(15.6368 -0.28949 2.47008e-06)
(15.5257 -0.238852 1.01969e-05)
(15.5257 -0.238852 9.9314e-06)
(15.5257 -0.238854 8.98931e-06)
(15.5257 -0.238857 7.99424e-06)
(15.5257 -0.238859 7.77188e-06)
(15.5257 -0.238862 7.8419e-06)
(15.5257 -0.238865 8.11992e-06)
(15.5257 -0.238868 7.76553e-06)
(15.5257 -0.238869 5.99316e-06)
(15.5257 -0.238873 3.78817e-06)
(15.4584 -0.16791 1.10707e-05)
(15.4584 -0.16791 1.10105e-05)
(15.4584 -0.167911 1.07016e-05)
(15.4584 -0.167912 1.08913e-05)
(15.4584 -0.167914 1.14048e-05)
(15.4584 -0.167915 1.18835e-05)
(15.4584 -0.167917 1.3157e-05)
(15.4584 -0.167917 1.22696e-05)
(15.4584 -0.167918 9.99634e-06)
(15.4584 -0.167919 8.04478e-06)
(15.4348 -0.0973236 1.30218e-05)
(15.4348 -0.0973235 1.32287e-05)
(15.4348 -0.0973229 1.39992e-05)
(15.4348 -0.0973223 1.48382e-05)
(15.4347 -0.0973211 1.56862e-05)
(15.4347 -0.0973205 1.59346e-05)
(15.4347 -0.0973192 1.58066e-05)
(15.4347 -0.0973199 1.42955e-05)
(15.4347 -0.0973188 1.2627e-05)
(15.4347 -0.0973186 1.13602e-05)
(15.4441 -0.0454117 1.41796e-05)
(15.4441 -0.0454109 1.46252e-05)
(15.4441 -0.0454097 1.57958e-05)
(15.444 -0.0454056 1.75933e-05)
(15.444 -0.0454045 1.77624e-05)
(15.444 -0.0454002 1.76216e-05)
(15.444 -0.0454 1.63917e-05)
(15.444 -0.0453966 1.51488e-05)
(15.444 -0.0453954 1.49496e-05)
(15.444 -0.0453915 1.4243e-05)
(15.4673 -0.0208657 1.40382e-05)
(15.4673 -0.0208648 1.447e-05)
(15.4673 -0.0208617 1.60591e-05)
(15.4673 -0.0208591 1.74636e-05)
(15.4673 -0.0208541 1.80032e-05)
(15.4673 -0.0208521 1.7878e-05)
(15.4673 -0.0208466 1.72537e-05)
(15.4672 -0.0208453 1.70155e-05)
(15.4672 -0.0208392 1.69155e-05)
(15.4672 -0.020833 1.64384e-05)
(15.4859 -0.0184466 1.032e-05)
(15.4859 -0.018445 1.08467e-05)
(15.4859 -0.0184416 1.23239e-05)
(15.4859 -0.018437 1.37388e-05)
(15.4859 -0.0184331 1.43135e-05)
(15.4859 -0.018428 1.42212e-05)
(15.4858 -0.0184241 1.42232e-05)
(15.4858 -0.0184191 1.39804e-05)
(15.4858 -0.018414 1.42854e-05)
(15.4858 -0.0184046 1.37572e-05)
(15.4922 -0.0239625 7.69032e-06)
(15.4922 -0.0239604 8.22996e-06)
(15.4922 -0.0239563 9.52749e-06)
(15.4922 -0.0239517 1.08367e-05)
(15.4922 -0.023947 1.15267e-05)
(15.4922 -0.023942 1.18143e-05)
(15.4922 -0.0239373 1.20297e-05)
(15.4922 -0.0239321 1.20342e-05)
(15.4922 -0.0239256 1.24868e-05)
(15.4921 -0.0239157 1.23655e-05)
(15.491 -0.0264888 7.4654e-06)
(15.491 -0.0264864 7.91061e-06)
(15.491 -0.0264819 9.00641e-06)
(15.491 -0.0264777 1.00161e-05)
(15.491 -0.0264721 1.07395e-05)
(15.491 -0.0264679 1.10774e-05)
(15.491 -0.0264619 1.1488e-05)
(15.491 -0.0264576 1.16517e-05)
(15.491 -0.0264492 1.21901e-05)
(15.491 -0.0264405 1.23376e-05)
(15.4898 -0.0252123 7.94965e-06)
(15.4898 -0.0252097 8.27565e-06)
(15.4898 -0.0252058 9.08189e-06)
(15.4898 -0.0252011 9.87166e-06)
(15.4898 -0.0251966 1.04551e-05)
(15.4898 -0.0251916 1.08254e-05)
(15.4898 -0.0251871 1.12839e-05)
(15.4898 -0.0251817 1.1536e-05)
(15.4898 -0.0251748 1.20861e-05)
(15.4898 -0.0251653 1.25567e-05)
(15.4905 -0.0236849 6.78343e-06)
(15.4905 -0.0236825 6.96296e-06)
(15.4905 -0.0236789 7.48295e-06)
(15.4905 -0.0236749 7.96607e-06)
(15.4905 -0.0236707 8.42402e-06)
(15.4905 -0.0236663 8.71782e-06)
(15.4905 -0.0236621 9.09915e-06)
(15.4905 -0.0236576 9.31648e-06)
(15.4905 -0.0236507 9.82233e-06)
(15.4905 -0.0236428 1.0495e-05)