/*--------------------------------*- C++ -*----------------------------------*\
| =========                 |                                                 |
| \\      /  F ield         | foam-extend: Open Source CFD                    |
|  \\    /   O peration     | Version:     3.2                                |
|   \\  /    A nd           | Web:         http://www.foam-extend.org         |
|    \\/     M anipulation  | For copyright notice see file Copyright         |
\*---------------------------------------------------------------------------*/
FoamFile
{
    version     2.0;
    format      ascii;
    class       volScalarField;
    location    "1200000";
    object      p;
}
// * * * * * * * * * * * * * * * * * * * * * * * * * * * * * * * * * * * * * //

dimensions      [0 2 -2 0 0 0 0];

internalField   nonuniform List<scalar> 
5000
(
7.84563e-11
-2.70729e-05
2.09925e-06
6.16445e-05
0.000101871
0.000177617
0.000211632
0.000298717
0.000319625
0.000422771
2.30541e-07
-2.74814e-05
1.8641e-06
6.20756e-05
0.000102659
0.000178476
0.000212678
0.00029971
0.000320752
0.000424509
5.99282e-07
-2.98783e-05
-1.0675e-06
6.14233e-05
0.00010246
0.000178694
0.000212941
0.000300325
0.000321504
0.000427312
1.06164e-06
-3.19951e-05
-4.8825e-06
6.04718e-05
0.00010205
0.000178986
0.000213472
0.000301241
0.000322569
0.000431654
2.47009e-06
-3.74348e-05
-1.15141e-05
5.91492e-05
0.000101245
0.000178797
0.000213252
0.000301889
0.000323525
0.000437175
3.21703e-06
-4.53218e-05
-1.46846e-05
5.76284e-05
9.76343e-05
0.000178153
0.000213468
0.000302757
0.000324661
0.000443972
4.50251e-06
-5.31264e-05
-2.18065e-05
5.28156e-05
9.55297e-05
0.000177279
0.000213025
0.000303355
0.000325723
0.0004517
5.42456e-06
-6.31311e-05
-2.90191e-05
4.84656e-05
9.14687e-05
0.000175302
0.000212335
0.000303878
0.000326863
0.000460312
6.42708e-06
-7.39581e-05
-3.80849e-05
4.16722e-05
8.6552e-05
0.000172708
0.000210978
0.000304046
0.000327857
0.000469574
6.99486e-06
-8.66299e-05
-4.85041e-05
3.40523e-05
8.03431e-05
0.000168887
0.000208779
0.000303814
0.000328617
0.000479382
7.32213e-06
-0.000100692
-6.06136e-05
2.4414e-05
7.26738e-05
0.000163883
0.000205596
0.00030294
0.00032889
0.000489534
7.056e-06
-0.000116668
-7.45527e-05
1.32768e-05
6.35438e-05
0.000157442
0.000201244
0.000301248
0.000328492
0.000499886
6.26741e-06
-0.00013445
-9.03489e-05
1.60836e-07
5.26642e-05
0.000149454
0.000195604
0.000298522
0.000327177
0.000510245
4.6913e-06
-0.000154315
-0.000108194
-1.48422e-05
4.0061e-05
0.000139798
0.000188523
0.000294574
0.000324748
0.000520448
2.36013e-06
-0.000176228
-0.000128043
-3.18792e-05
2.55751e-05
0.000128363
0.000179909
0.00028925
0.000321032
0.000530336
-9.1929e-07
-0.000200317
-0.000149993
-5.09552e-05
9.23198e-06
0.000115103
0.00016967
0.000282413
0.000315872
0.000539747
-5.07912e-06
-0.000226475
-0.000173914
-7.2002e-05
-8.94183e-06
0.00010001
0.000157807
0.00027402
0.000309195
0.000548571
-1.02359e-05
-0.000254693
-0.000199763
-9.49575e-05
-2.88665e-05
8.31231e-05
0.00014435
0.000264021
0.000300923
0.000556679
-1.62111e-05
-0.000284697
-0.000227261
-0.000119556
-5.03096e-05
6.46286e-05
0.000129474
0.000252556
0.000291144
0.000564028
-2.30334e-05
-0.000316317
-0.000256216
-0.000145608
-7.30842e-05
4.46882e-05
0.000113329
0.000239683
0.000279895
0.000570534
-3.03431e-05
-0.00034905
-0.000286142
-0.000172624
-9.67329e-05
2.3725e-05
9.63062e-05
0.000225751
0.000267508
0.000576309
-3.80959e-05
-0.000382612
-0.000316745
-0.000200316
-0.000120989
1.97691e-06
7.86153e-05
0.000210947
0.000254155
0.000581297
-4.57312e-05
-0.000416257
-0.000347342
-0.000227979
-0.000145173
-1.98906e-05
6.08808e-05
0.000195871
0.000240384
0.000585706
-5.31111e-05
-0.000449594
-0.0003776
-0.000255282
-0.000168989
-4.16099e-05
4.33094e-05
0.000180752
0.000226412
0.000589448
-5.96128e-05
-0.000481856
-0.000406823
-0.000281475
-0.000191691
-6.24412e-05
2.65891e-05
0.000166279
0.000212838
0.000592765
-6.50489e-05
-0.000512714
-0.00043479
-0.000306322
-0.000213078
-8.22098e-05
1.08488e-05
0.000152625
0.000199853
0.000595642
-6.87037e-05
-0.000541396
-0.00046071
-0.000328927
-0.000232227
-0.000100031
-3.09698e-06
0.00014058
0.000188118
0.000598516
-7.08321e-05
-0.000568431
-0.000485149
-0.000349748
-0.000249574
-0.000116361
-1.56583e-05
0.000129739
0.000177376
0.000601358
-7.14033e-05
-0.000593747
-0.000507737
-0.000368246
-0.000264568
-0.000130769
-2.6485e-05
0.000120274
0.000167675
0.000604353
-7.1041e-05
-0.000619632
-0.00053025
-0.000385666
-0.000278338
-0.000144289
-3.64432e-05
0.000111147
0.000158487
0.000607987
-7.07731e-05
-0.000645957
-0.000552272
-0.000401645
-0.000290671
-0.000157116
-4.57462e-05
0.00010157
0.000149112
0.000611637
-7.02401e-05
-0.000671508
-0.000572917
-0.000415167
-0.000300575
-0.00016839
-5.33447e-05
9.22632e-05
0.000140126
0.000616268
-6.96567e-05
-0.000696129
-0.000591435
-0.000425423
-0.000307646
-0.000178101
-5.95791e-05
8.25772e-05
0.000131339
0.000621796
-6.88381e-05
-0.000718999
-0.00060725
-0.000431635
-0.000311101
-0.000185382
-6.34478e-05
7.32367e-05
0.000123459
0.000628651
-6.82347e-05
-0.000738136
-0.000618006
-0.000433006
-0.000311063
-0.000191133
-6.60586e-05
6.56022e-05
0.000118152
0.000635756
-6.70828e-05
-0.000749469
-0.000622642
-0.000429101
-0.000306659
-0.000193803
-6.63007e-05
6.30868e-05
0.000116991
0.000641201
-6.70401e-05
-0.000744329
-0.000615296
-0.000420931
-0.000299632
-0.00019219
-6.39848e-05
6.41682e-05
0.000119951
0.000642751
-6.67165e-05
-0.00072052
-0.000596824
-0.000406893
-0.000287749
-0.000182227
-5.67125e-05
7.05805e-05
0.000126722
0.000636803
-6.58849e-05
-0.000677976
-0.000565899
-0.000385086
-0.000269733
-0.000162865
-4.41215e-05
8.14447e-05
0.000138578
0.000624649
-6.47119e-05
-0.000614387
-0.000520726
-0.000356418
-0.000246465
-0.000136839
-2.57801e-05
9.93905e-05
0.000153301
0.000603395
-6.30799e-05
-0.00053749
-0.000462805
-0.000320047
-0.000217927
-0.000108691
-6.75913e-06
0.000123929
0.000176624
0.000576821
-6.16922e-05
-0.000456499
-0.000397611
-0.000275754
-0.000184191
-7.63375e-05
1.79454e-05
0.000144498
0.000197726
0.000544834
-6.00397e-05
-0.000374638
-0.000328578
-0.00022405
-0.00014487
-4.01757e-05
4.42256e-05
0.000162312
0.00021902
0.00051397
-5.87807e-05
-0.00029666
-0.000261508
-0.000168545
-0.000101902
-1.89728e-06
7.24612e-05
0.000179482
0.000239408
0.000486293
-5.73314e-05
-0.000222881
-0.000197326
-0.000111836
-5.7315e-05
3.72897e-05
0.000102019
0.000200502
0.000262092
0.000464501
-5.6229e-05
-0.000154727
-0.000136713
-5.76992e-05
-1.34597e-05
7.54155e-05
0.000132357
0.000224852
0.000285528
0.000446513
-5.50494e-05
-9.49798e-05
-8.1915e-05
-9.05203e-06
2.72756e-05
0.000110691
0.000161614
0.000250215
0.000308651
0.000433266
-5.42632e-05
-4.80293e-05
-3.71757e-05
3.04922e-05
6.16458e-05
0.000140267
0.000187079
0.000272648
0.000328826
0.0004251
-5.36597e-05
-1.63261e-05
-5.84097e-06
5.83444e-05
8.66244e-05
0.000161679
0.000206049
0.000289109
0.000343867
0.000421515
-5.33591e-05
-3.1975e-07
1.04638e-05
7.29471e-05
0.000100044
0.00017315
0.000216432
0.000297945
0.0003521
0.000420589
-3.44314e-05
-4.58197e-05
-2.07503e-05
3.82459e-05
7.79633e-05
0.000161173
0.000197613
0.000292557
0.000316225
0.000424293
-3.40232e-05
-4.59919e-05
-2.09099e-05
3.85647e-05
7.86811e-05
0.000162023
0.000198641
0.000293567
0.000317365
0.000426014
-3.39257e-05
-4.82349e-05
-2.38902e-05
3.7025e-05
7.77284e-05
0.000161684
0.000198301
0.00029363
0.000317425
0.000427919
-3.3689e-05
-5.04146e-05
-2.77713e-05
3.52282e-05
7.64509e-05
0.000161183
0.000197942
0.000293719
0.000317589
0.000431056
-3.30128e-05
-5.54356e-05
-3.42782e-05
3.17529e-05
7.42921e-05
0.000159959
0.000196615
0.000293208
0.000317215
0.000434854
-3.28055e-05
-6.25234e-05
-3.8996e-05
2.83763e-05
7.0598e-05
0.000157703
0.000195113
0.000292674
0.000316835
0.000439726
-3.23399e-05
-6.99436e-05
-4.66988e-05
2.26466e-05
6.63868e-05
0.00015464
0.000192955
0.000291697
0.000316164
0.000445378
-3.2085e-05
-7.92554e-05
-5.51217e-05
1.68519e-05
6.11917e-05
0.000150538
0.000190297
0.000290343
0.000315412
0.000451964
-3.18486e-05
-8.9775e-05
-6.51132e-05
9.39424e-06
5.47062e-05
0.000145617
0.000186931
0.000288376
0.000314453
0.000459317
-3.19167e-05
-0.000102054
-7.63833e-05
9.22871e-07
4.7223e-05
0.00013985
0.000182814
0.000285867
0.000313284
0.000467371
-3.22224e-05
-0.000115788
-8.91811e-05
-9.19646e-06
3.84005e-05
0.000133098
0.000177847
0.000282744
0.000311743
0.000475975
-3.29503e-05
-0.000131305
-0.000103575
-2.07571e-05
2.84028e-05
0.000125329
0.000172017
0.000279032
0.000309751
0.000485017
-3.40927e-05
-0.000148568
-0.000119605
-3.39475e-05
1.70087e-05
0.00011639
0.000165244
0.000274681
0.000307147
0.000494334
-3.57853e-05
-0.000167783
-0.000137351
-4.87363e-05
4.28423e-06
0.000106279
0.000157507
0.000269626
0.000303838
0.000503844
-3.80263e-05
-0.00018895
-0.000156784
-6.51492e-05
-9.8408e-06
9.49292e-05
0.000148756
0.000263768
0.000299742
0.00051344
-4.09026e-05
-0.00021216
-0.000177923
-8.31788e-05
-2.53185e-05
8.23791e-05
0.000138996
0.000257068
0.000294786
0.000523006
-4.43627e-05
-0.000237346
-0.000200661
-0.000102729
-4.20752e-05
6.86517e-05
0.00012824
0.000249503
0.000288925
0.000532476
-4.84321e-05
-0.000264472
-0.000224919
-0.000123719
-6.00211e-05
5.37838e-05
0.000116565
0.000241073
0.000282131
0.000541745
-5.2959e-05
-0.00029333
-0.00025047
-0.000145925
-7.89524e-05
3.79108e-05
0.000104079
0.000231903
0.000274493
0.000550776
-5.78961e-05
-0.000323725
-0.000277129
-0.000169182
-9.87071e-05
2.11449e-05
9.09193e-05
0.000222032
0.00026602
0.000559497
-6.29567e-05
-0.000355262
-0.000304521
-0.000193098
-0.00011894
3.7788e-06
7.73371e-05
0.000211601
0.000256848
0.000567896
-6.8037e-05
-0.000387683
-0.000332414
-0.000217428
-0.000139443
-1.40319e-05
6.34653e-05
0.000200668
0.000247037
0.000575882
-7.27511e-05
-0.000420366
-0.000360262
-0.00024166
-0.000159758
-3.18797e-05
4.96691e-05
0.00018952
0.000236848
0.00058347
-7.68309e-05
-0.000452764
-0.000387671
-0.000265428
-0.000179594
-4.95246e-05
3.61264e-05
0.000178294
0.000226408
0.000590528
-8.00963e-05
-0.000484388
-0.000414275
-0.000288359
-0.000198603
-6.66376e-05
2.31222e-05
0.000167261
0.000215946
0.000596978
-8.2199e-05
-0.000514602
-0.000439689
-0.000310107
-0.000216524
-8.30112e-05
1.07842e-05
0.000156559
0.000205572
0.000602663
-8.3308e-05
-0.000543242
-0.00046384
-0.000330545
-0.000233205
-9.85135e-05
-7.87192e-07
0.00014632
0.000195348
0.00060741
-8.3428e-05
-0.000570298
-0.000486952
-0.000349872
-0.000248904
-0.000113443
-1.19386e-05
0.000136238
0.000184993
0.000610934
-8.34106e-05
-0.000596338
-0.000509427
-0.000368333
-0.000263767
-0.00012803
-2.28698e-05
0.000126018
0.000174192
0.000613024
-8.24157e-05
-0.000620964
-0.000531225
-0.000385774
-0.000277685
-0.000142146
-3.34318e-05
0.000115909
0.000163257
0.000614385
-8.16915e-05
-0.000645419
-0.0005525
-0.000401851
-0.000290264
-0.000155643
-4.34545e-05
0.000105472
0.000152027
0.000615577
-8.09522e-05
-0.000670239
-0.000573234
-0.000416024
-0.000300957
-0.000168
-5.23246e-05
9.47194e-05
0.000141009
0.000617859
-8.06228e-05
-0.000695374
-0.000592401
-0.00042709
-0.000308856
-0.00017866
-5.95251e-05
8.37841e-05
0.000130792
0.000621933
-7.9635e-05
-0.000720453
-0.000609531
-0.000434141
-0.000313024
-0.000186561
-6.41855e-05
7.35876e-05
0.000122481
0.000628649
-7.84906e-05
-0.000741274
-0.00062097
-0.000435739
-0.00031313
-0.000192234
-6.66223e-05
6.54659e-05
0.000117303
0.000636218
-7.69489e-05
-0.000754621
-0.000626532
-0.000432408
-0.000309189
-0.000195388
-6.72956e-05
6.31183e-05
0.000117049
0.000642506
-7.59531e-05
-0.000749465
-0.000619175
-0.000423893
-0.000301805
-0.000193412
-6.4441e-05
6.4477e-05
0.00012043
0.000644368
-7.48818e-05
-0.00072553
-0.000600585
-0.000409752
-0.000289834
-0.000183373
-5.70708e-05
7.1019e-05
0.000127719
0.000638971
-7.39571e-05
-0.000683262
-0.000570142
-0.000388438
-0.000272252
-0.000164498
-4.48805e-05
8.14193e-05
0.000139171
0.000626375
-7.32996e-05
-0.000620281
-0.000525658
-0.000360712
-0.000249961
-0.000139511
-2.75631e-05
9.84094e-05
0.000153059
0.000604238
-7.22741e-05
-0.00054426
-0.000468669
-0.000325341
-0.000222415
-0.000112415
-9.60211e-06
0.000121893
0.000175374
0.000576568
-7.16557e-05
-0.000464186
-0.000404397
-0.000282026
-0.000189707
-8.11546e-05
1.39734e-05
0.000141338
0.00019539
0.000543404
-7.07074e-05
-0.00038315
-0.000336271
-0.000231218
-0.000151321
-4.59733e-05
3.9229e-05
0.000158099
0.000215627
0.000511379
-6.99567e-05
-0.00030569
-0.000269811
-0.000176303
-0.000109003
-8.37503e-06
6.67322e-05
0.000174514
0.000235236
0.000482805
-6.87415e-05
-0.00023219
-0.000206008
-0.000119959
-6.48407e-05
3.03647e-05
9.57923e-05
0.000195014
0.000257374
0.000460387
-6.78574e-05
-0.000164301
-0.000145723
-6.61308e-05
-2.13473e-05
6.81149e-05
0.000125713
0.000218928
0.000280359
0.000441925
-6.67645e-05
-0.000104726
-9.11473e-05
-1.7694e-05
1.91307e-05
0.000103121
0.000154661
0.000243961
0.00030314
0.000428359
-6.60565e-05
-5.79508e-05
-4.66195e-05
2.16475e-05
5.32656e-05
0.000132455
0.00017986
0.000266108
0.000323022
0.000419949
-6.54626e-05
-2.63104e-05
-1.53643e-05
4.94272e-05
7.81504e-05
0.000153768
0.000198712
0.000282435
0.000337922
0.000416254
-6.51586e-05
-1.03319e-05
9.02832e-07
6.39951e-05
9.15245e-05
0.000165191
0.000209038
0.000291208
0.000346086
0.00041528
-4.85757e-05
-4.96547e-05
-2.10613e-05
4.41721e-05
8.4695e-05
0.000173786
0.00021239
0.000310228
0.000338097
0.000448618
-4.83439e-05
-4.98959e-05
-2.11669e-05
4.43792e-05
8.51058e-05
0.000174474
0.00021309
0.000310983
0.000339022
0.000449989
-4.83866e-05
-5.21464e-05
-2.36265e-05
4.32032e-05
8.39151e-05
0.000174198
0.000212539
0.000310966
0.000339209
0.000451614
-4.85811e-05
-5.45496e-05
-2.69124e-05
4.14965e-05
8.22292e-05
0.000173768
0.000211752
0.000310813
0.000339405
0.00045434
-4.82815e-05
-5.99348e-05
-3.255e-05
3.88908e-05
7.95608e-05
0.000172522
0.000209991
0.000310142
0.000339127
0.000457766
-4.87493e-05
-6.72364e-05
-3.64847e-05
3.50245e-05
7.61163e-05
0.000170821
0.000207839
0.000309367
0.000338705
0.000462216
-4.89361e-05
-7.45176e-05
-4.32997e-05
2.90695e-05
7.24016e-05
0.000168202
0.000204927
0.00030823
0.000337859
0.00046746
-4.94535e-05
-8.34621e-05
-5.09297e-05
2.28252e-05
6.77702e-05
0.000164399
0.000201922
0.000306868
0.000336664
0.00047354
-4.9917e-05
-9.3248e-05
-6.03491e-05
1.51951e-05
6.19227e-05
0.000159523
0.000198504
0.000305032
0.000334995
0.000480325
-5.06068e-05
-0.000104818
-7.10476e-05
6.74974e-06
5.50162e-05
0.000153731
0.000194678
0.000302709
0.000332987
0.000487864
-5.1426e-05
-0.000117788
-8.31773e-05
-3.11481e-06
4.6837e-05
0.000146989
0.000190244
0.00029977
0.000330622
0.000496069
-5.24963e-05
-0.000132516
-9.68311e-05
-1.42356e-05
3.7523e-05
0.000139304
0.000185104
0.000296235
0.000328044
0.000504927
-5.37833e-05
-0.000148904
-0.000112016
-2.68119e-05
2.69389e-05
0.00013057
0.000179082
0.000292095
0.000325245
0.000514441
-5.5345e-05
-0.000167135
-0.000128863
-4.08358e-05
1.51446e-05
0.000120786
0.000172235
0.000287432
0.000321992
0.000524387
-5.71588e-05
-0.000187215
-0.000147334
-5.63418e-05
2.07813e-06
0.000109912
0.000164579
0.000282193
0.000318219
0.000534614
-5.92459e-05
-0.000209221
-0.000167483
-7.33437e-05
-1.22641e-05
9.79749e-05
0.000156012
0.000276254
0.00031396
0.000545143
-6.15602e-05
-0.000233124
-0.000189214
-9.17867e-05
-2.78326e-05
8.50006e-05
0.000146558
0.000269587
0.000309054
0.000555794
-6.40863e-05
-0.000258898
-0.000212486
-0.00011162
-4.45705e-05
7.1011e-05
0.000136203
0.000262179
0.000303479
0.000566431
-6.67357e-05
-0.000286402
-0.000237116
-0.000132693
-6.23547e-05
5.60908e-05
0.000124994
0.0002539
0.000297105
0.000576903
-6.94462e-05
-0.000315506
-0.000262936
-0.000154837
-8.10394e-05
4.0273e-05
0.000112967
0.000244898
0.000289864
0.000586897
-7.2094e-05
-0.0003459
-0.000289676
-0.000177833
-0.000100433
2.36929e-05
0.000100261
0.000235185
0.000281708
0.000596274
-7.45676e-05
-0.000377235
-0.00031703
-0.000201398
-0.000120296
6.51483e-06
8.69984e-05
0.000224803
0.000272636
0.00060483
-7.67938e-05
-0.000409196
-0.00034475
-0.000225299
-0.000140434
-1.11437e-05
7.32837e-05
0.000213762
0.000262621
0.000612359
-7.85812e-05
-0.000441258
-0.000372402
-0.000249128
-0.000160509
-2.90058e-05
5.93401e-05
0.000202205
0.000251792
0.000618744
-7.98963e-05
-0.000473023
-0.000399685
-0.000272578
-0.00018023
-4.68271e-05
4.5387e-05
0.000190319
0.000240315
0.00062389
-8.07013e-05
-0.000504036
-0.000426319
-0.000295401
-0.000199421
-6.45019e-05
3.14719e-05
0.000178121
0.000228209
0.000627546
-8.09909e-05
-0.000533891
-0.000452041
-0.000317304
-0.000217765
-8.17308e-05
1.7887e-05
0.00016593
0.000215756
0.000629776
-8.08195e-05
-0.000562363
-0.00047678
-0.000338197
-0.000235222
-9.8529e-05
4.57764e-06
0.000153701
0.000202949
0.000630545
-8.08823e-05
-0.000589946
-0.000500993
-0.000358381
-0.000251983
-0.000115147
-8.6259e-06
0.000141182
0.000189576
0.000629762
-8.07004e-05
-0.000615931
-0.000524165
-0.000377319
-0.000267581
-0.000131174
-2.1322e-05
0.000128832
0.000176188
0.000628309
-8.1035e-05
-0.000641846
-0.000547001
-0.000395072
-0.000281935
-0.000146627
-3.34147e-05
0.000116262
0.000162604
0.000626784
-8.1692e-05
-0.000668505
-0.000569595
-0.000411217
-0.00029477
-0.000161298
-4.47713e-05
0.000103022
0.000148881
0.000626177
-8.16502e-05
-0.000694492
-0.000589774
-0.000423329
-0.000303823
-0.000173216
-5.33449e-05
9.06325e-05
0.000137001
0.000628411
-8.11653e-05
-0.000720191
-0.000608334
-0.000432165
-0.000310026
-0.000183191
-6.02784e-05
7.82355e-05
0.000126509
0.000632912
-8.04665e-05
-0.000741954
-0.000621028
-0.000435001
-0.000311445
-0.000190084
-6.40272e-05
6.84913e-05
0.000119737
0.000638987
-7.91835e-05
-0.000755996
-0.000627519
-0.000432769
-0.000308816
-0.000194578
-6.62008e-05
6.4555e-05
0.000118248
0.000644056
-7.80382e-05
-0.00075098
-0.000620455
-0.000424535
-0.000301806
-0.000193066
-6.38106e-05
6.53545e-05
0.000121076
0.000645431
-7.66529e-05
-0.000726972
-0.000601933
-0.000410549
-0.000290132
-0.000183395
-5.68434e-05
7.14174e-05
0.000128011
0.000639709
-7.54878e-05
-0.00068463
-0.000571529
-0.000389315
-0.000272704
-0.000164734
-4.48989e-05
8.1534e-05
0.000139205
0.000626813
-7.47196e-05
-0.000621691
-0.000527208
-0.000361789
-0.000250675
-0.000140048
-2.79127e-05
9.81648e-05
0.000152702
0.000604215
-7.35294e-05
-0.000545597
-0.00047021
-0.000326485
-0.000223244
-0.000113089
-1.01356e-05
0.000121476
0.000174832
0.000576227
-7.27455e-05
-0.000465448
-0.000405877
-0.000283213
-0.000190643
-8.19543e-05
1.32969e-05
0.000140761
0.000194667
0.000542727
-7.15433e-05
-0.000384254
-0.000337553
-0.000232285
-0.000152208
-4.67335e-05
3.85595e-05
0.000157479
0.000214868
0.000510524
-7.05929e-05
-0.00030671
-0.00027097
-0.000177304
-0.000109879
-9.13921e-06
6.60201e-05
0.000173821
0.000234378
0.000481757
-6.92492e-05
-0.000233177
-0.00020709
-0.0001209
-6.56856e-05
2.96212e-05
9.50716e-05
0.000194289
0.000256462
0.000459254
-6.8289e-05
-0.000165261
-0.000146727
-6.69999e-05
-2.21329e-05
6.74184e-05
0.000125021
0.000218203
0.000279432
0.000440779
-6.72711e-05
-0.00010572
-9.21058e-05
-1.84947e-05
1.84262e-05
0.000102502
0.000154045
0.000243277
0.000302245
0.000427285
-6.66819e-05
-5.90746e-05
-4.76753e-05
2.0755e-05
5.2473e-05
0.000131742
0.000179144
0.000265304
0.000321998
0.000418766
-6.62161e-05
-2.75529e-05
-1.6522e-05
4.84396e-05
7.72679e-05
0.000152966
0.000197906
0.000281537
0.000336794
0.000414975
-6.59966e-05
-1.16575e-05
-3.34502e-07
6.29284e-05
9.05633e-05
0.00016431
0.000208149
0.000290226
0.00034487
0.000413915
-7.90453e-05
-6.75972e-05
-3.89818e-05
3.4087e-05
7.4819e-05
0.000166658
0.000213219
0.000312947
0.000348469
0.000468076
-7.87543e-05
-6.77276e-05
-3.9217e-05
3.46037e-05
7.51895e-05
0.000167442
0.000214034
0.000313691
0.000349567
0.000469525
-7.86731e-05
-6.95551e-05
-4.17276e-05
3.40438e-05
7.38756e-05
0.000167321
0.000213825
0.000313561
0.000350122
0.000471452
-7.86298e-05
-7.18305e-05
-4.53513e-05
3.34558e-05
7.2012e-05
0.00016705
0.000213462
0.000313188
0.000350745
0.000474636
-7.82045e-05
-7.61088e-05
-5.10309e-05
3.17751e-05
6.89215e-05
0.00016612
0.000212267
0.000312236
0.000350962
0.000478666
-7.83143e-05
-8.46464e-05
-5.45075e-05
3.03311e-05
6.43986e-05
0.00016478
0.000210768
0.000311162
0.000351034
0.000483718
-7.84888e-05
-9.21996e-05
-6.01779e-05
2.54292e-05
5.98115e-05
0.00016311
0.000208516
0.000309887
0.000350756
0.000489424
-7.89202e-05
-0.000101538
-6.72082e-05
1.90794e-05
5.56162e-05
0.000160715
0.000205618
0.000308816
0.000350232
0.000495639
-7.94343e-05
-0.000111382
-7.58451e-05
1.13366e-05
5.04442e-05
0.000156979
0.00020212
0.000307741
0.00034927
0.000502221
-8.00463e-05
-0.000122784
-8.59794e-05
2.70689e-06
4.44356e-05
0.000152107
0.000198216
0.00030664
0.000347922
0.000509222
-8.0814e-05
-0.000135549
-9.74291e-05
-7.1734e-06
3.72406e-05
0.000146078
0.000193688
0.000305214
0.000346031
0.000516683
-8.17127e-05
-0.000149939
-0.000110431
-1.83423e-05
2.89227e-05
0.000139051
0.000188571
0.000303274
0.000343614
0.000524747
-8.28059e-05
-0.000165969
-0.000124865
-3.0844e-05
1.93821e-05
0.000131035
0.000182743
0.000300366
0.000340669
0.000533676
-8.4047e-05
-0.000183723
-0.000140919
-4.47966e-05
8.62449e-06
0.000121935
0.000176058
0.000296647
0.000337386
0.000543116
-8.54648e-05
-0.000203266
-0.000158518
-6.0159e-05
-3.35582e-06
0.000111633
0.000168443
0.000292313
0.000333678
0.000552969
-8.70165e-05
-0.00022462
-0.000177769
-7.6941e-05
-1.6668e-05
0.000100168
0.000160162
0.000287075
0.00032923
0.000563269
-8.86779e-05
-0.000247801
-0.000198563
-9.50526e-05
-3.11951e-05
8.7605e-05
0.000151014
0.000280885
0.000324099
0.00057384
-9.04091e-05
-0.000272765
-0.000220892
-0.000114512
-4.69721e-05
7.3911e-05
0.00014102
0.00027376
0.000318195
0.000584452
-9.21296e-05
-0.000299404
-0.000244599
-0.000135127
-6.38278e-05
5.93032e-05
0.00013028
0.000265658
0.000311488
0.000595042
-9.37996e-05
-0.000327594
-0.000269563
-0.000156845
-8.17272e-05
4.37722e-05
0.00011866
0.000256601
0.000304038
0.000605266
-9.52991e-05
-0.000357091
-0.000295533
-0.000179419
-0.000100412
2.74958e-05
0.000106338
0.000246817
0.000295779
0.000614841
-9.65832e-05
-0.000387635
-0.00032227
-0.000202653
-0.000119742
1.0537e-05
9.33256e-05
0.000236226
0.000286542
0.000623395
-9.75508e-05
-0.000418875
-0.000349481
-0.000226284
-0.000139465
-6.92975e-06
7.97777e-05
0.000224965
0.000276344
0.000630718
-9.81811e-05
-0.000450432
-0.000376866
-0.000250053
-0.000159373
-2.48017e-05
6.57694e-05
0.00021299
0.000265093
0.000636532
-9.83626e-05
-0.000481818
-0.000404041
-0.000273593
-0.000179133
-4.28049e-05
5.15395e-05
0.000200511
0.000252964
0.000640792
-9.81942e-05
-0.000512658
-0.000430777
-0.000296711
-0.000198598
-6.08893e-05
3.71154e-05
0.000187488
0.000239927
0.000643275
-9.75843e-05
-0.00054239
-0.000456672
-0.000319004
-0.000217368
-7.86892e-05
2.2829e-05
0.000174285
0.000226312
0.00064408
-9.67552e-05
-0.000570881
-0.000481738
-0.000340459
-0.00023546
-9.62929e-05
8.58299e-06
0.000160808
0.000212068
0.000643114
-9.61669e-05
-0.00059829
-0.000506133
-0.000361135
-0.000252853
-0.000113749
-5.62494e-06
0.000147005
0.000197166
0.000640462
-9.58049e-05
-0.000624389
-0.000529751
-0.000380818
-0.000269356
-0.000130905
-1.95956e-05
0.000133074
0.000182
0.000636867
-9.55913e-05
-0.000649675
-0.0005525
-0.000398948
-0.000284306
-0.000147235
-3.27327e-05
0.000119267
0.000166873
0.000633295
-9.59967e-05
-0.000676107
-0.000575296
-0.000415643
-0.000297872
-0.000162822
-4.51628e-05
0.000104805
0.000151776
0.000630934
-9.60266e-05
-0.000703013
-0.00059643
-0.000428812
-0.000308072
-0.000176021
-5.50623e-05
9.07299e-05
0.000137981
0.000631271
-9.54763e-05
-0.000728994
-0.000615393
-0.00043821
-0.000314948
-0.000186787
-6.29344e-05
7.73369e-05
0.000126497
0.000634247
-9.44745e-05
-0.000751536
-0.000628766
-0.000441704
-0.00031703
-0.000194371
-6.73277e-05
6.6581e-05
0.000118561
0.00063935
-9.30105e-05
-0.000766225
-0.000635744
-0.000439991
-0.000315007
-0.000199536
-7.02116e-05
6.18109e-05
0.000116467
0.000643769
-9.13214e-05
-0.000761573
-0.000629051
-0.00043196
-0.000308222
-0.00019835
-6.80646e-05
6.21814e-05
0.000118813
0.00064469
-8.96667e-05
-0.000737759
-0.000610754
-0.000418258
-0.00029693
-0.000189151
-6.15372e-05
6.76755e-05
0.000125297
0.000638531
-8.82277e-05
-0.000695429
-0.000580627
-0.00039737
-0.000279857
-0.000170934
-5.00326e-05
7.72976e-05
0.000136013
0.00062507
-8.73757e-05
-0.000632413
-0.00053643
-0.000370154
-0.000258211
-0.000146683
-3.35002e-05
9.33381e-05
0.000148902
0.000601852
-8.61003e-05
-0.000556337
-0.00047969
-0.000335178
-0.000231125
-0.000120145
-1.62452e-05
0.000116212
0.000170534
0.000573215
-8.53761e-05
-0.000476222
-0.000415582
-0.000292217
-0.000198877
-8.94348e-05
6.69745e-06
0.000135043
0.000189829
0.000538987
-8.41862e-05
-0.00039505
-0.000347469
-0.000241536
-0.000160746
-5.45527e-05
3.15299e-05
0.000151336
0.000209558
0.000506128
-8.32689e-05
-0.000317544
-0.000281039
-0.000186714
-0.000118628
-1.72031e-05
5.86863e-05
0.000167335
0.000228663
0.000476858
-8.20348e-05
-0.000244135
-0.000217368
-0.000130512
-7.46979e-05
2.12662e-05
8.73921e-05
0.000187404
0.000250318
0.000453896
-8.1345e-05
-0.000176466
-0.000157315
-7.69239e-05
-3.15109e-05
5.86732e-05
0.000116911
0.000210841
0.000272806
0.000434912
-8.05863e-05
-0.000117177
-0.00010302
-2.87699e-05
8.6366e-06
9.33196e-05
0.000145458
0.000235411
0.000295119
0.000420873
-8.01985e-05
-7.07067e-05
-5.88092e-05
1.02413e-05
4.24048e-05
0.000122263
0.000170234
0.000257101
0.000314535
0.000411975
-7.98203e-05
-3.92628e-05
-2.77624e-05
3.78033e-05
6.70489e-05
0.000143321
0.000188809
0.000273137
0.000329134
0.000407956
-7.96435e-05
-2.34052e-05
-1.16249e-05
5.22347e-05
8.02743e-05
0.000154588
0.000198967
0.000281735
0.000337117
0.00040679
-9.45758e-05
-7.35964e-05
-3.85154e-05
3.7167e-05
9.28408e-05
0.000181912
0.000240391
0.000343398
0.000383203
0.000516576
-9.42376e-05
-7.35939e-05
-3.89741e-05
3.77419e-05
9.33624e-05
0.000182537
0.000241255
0.000343979
0.000384271
0.000518117
-9.42558e-05
-7.46729e-05
-4.19189e-05
3.71799e-05
9.25646e-05
0.000182106
0.000241408
0.00034368
0.00038494
0.000520729
-9.39034e-05
-7.68577e-05
-4.60142e-05
3.67337e-05
9.14915e-05
0.000181246
0.000241472
0.000342969
0.000385515
0.000524903
-9.40242e-05
-7.87097e-05
-5.2735e-05
3.47468e-05
8.91224e-05
0.000179586
0.000240959
0.000341709
0.00038578
0.000530384
-9.33348e-05
-8.45293e-05
-6.0393e-05
3.35671e-05
8.62769e-05
0.000177332
0.000240068
0.000340267
0.00038602
0.000536983
-9.36233e-05
-9.31226e-05
-6.59819e-05
3.18872e-05
8.0786e-05
0.000174414
0.000238496
0.000338679
0.000386338
0.000544355
-9.37825e-05
-0.000102836
-7.27927e-05
2.78631e-05
7.4389e-05
0.000171837
0.000236427
0.000337127
0.000386689
0.000552219
-9.43934e-05
-0.000113157
-8.03497e-05
2.10273e-05
6.8208e-05
0.00016883
0.000233402
0.000335604
0.00038692
0.000560283
-9.49225e-05
-0.000124452
-8.99336e-05
1.28025e-05
6.15667e-05
0.00016513
0.000229704
0.000334287
0.000387013
0.000568397
-9.56428e-05
-0.000137126
-0.000100561
3.3298e-06
5.40382e-05
0.000160496
0.000225276
0.00033304
0.000386646
0.000576358
-9.62783e-05
-0.000151153
-0.000112783
-7.4513e-06
4.55455e-05
0.000154931
0.000220244
0.000331792
0.000385664
0.000584163
-9.70252e-05
-0.000166814
-0.000126228
-1.94528e-05
3.60491e-05
0.00014832
0.000214598
0.000330312
0.000383696
0.000591872
-9.76937e-05
-0.000184005
-0.000141179
-3.29095e-05
2.54649e-05
0.000140936
0.000208254
0.000328053
0.000381198
0.000599668
-9.83825e-05
-0.000202916
-0.000157464
-4.77125e-05
1.37727e-05
0.000132474
0.000200792
0.000324748
0.000377869
0.000607902
-9.89764e-05
-0.000223464
-0.0001753
-6.38995e-05
1.09399e-06
0.000122686
0.00019252
0.000320991
0.0003737
0.000616338
-9.94931e-05
-0.000245746
-0.000194595
-8.13044e-05
-1.26695e-05
0.000111614
0.000183438
0.000316201
0.000368318
0.000624657
-9.98804e-05
-0.000269698
-0.000215372
-0.000100057
-2.76049e-05
9.91797e-05
0.000173371
0.000310304
0.000361948
0.000633102
-0.000100098
-0.000295249
-0.000237546
-0.00011992
-4.35224e-05
8.54661e-05
0.000162656
0.000303287
0.000354279
0.000641307
-0.000100162
-0.000322345
-0.000261075
-0.000140933
-6.06524e-05
7.05017e-05
0.000150928
0.00029457
0.000345625
0.000649698
-0.000100001
-0.000350797
-0.000285776
-0.000162916
-7.87271e-05
5.44967e-05
0.00013836
0.000284545
0.000335997
0.000657783
-9.97006e-05
-0.000380464
-0.000311549
-0.000185801
-9.77979e-05
3.73759e-05
0.000124776
0.00027305
0.000325139
0.000664869
-9.9176e-05
-0.000411025
-0.0003381
-0.000209334
-0.0001176
1.94052e-05
0.000110342
0.000260439
0.000313146
0.000670597
-9.85912e-05
-0.000442255
-0.00036526
-0.0002334
-0.000138041
5.82911e-07
9.50201e-05
0.000246606
0.000299747
0.000674381
-9.79043e-05
-0.000473736
-0.000392701
-0.000257703
-0.000158867
-1.88802e-05
7.89382e-05
0.000231775
0.00028507
0.000676042
-9.72174e-05
-0.000505062
-0.000420113
-0.000281965
-0.000179793
-3.88099e-05
6.22811e-05
0.000216045
0.000269125
0.000675439
-9.6554e-05
-0.000535742
-0.000447175
-0.000305866
-0.000200513
-5.89267e-05
4.52914e-05
0.000199698
0.000252206
0.000672687
-9.59074e-05
-0.000565295
-0.000473567
-0.000329071
-0.000220688
-7.89635e-05
2.82384e-05
0.000183034
0.000234593
0.000668007
-9.5608e-05
-0.000593862
-0.000499405
-0.000351539
-0.000240196
-9.8843e-05
1.12633e-05
0.000166141
0.000216427
0.000661725
-9.55585e-05
-0.000620954
-0.000524309
-0.000372836
-0.000258624
-0.000118229
-5.25922e-06
0.000149345
0.000198226
0.000654737
-9.57489e-05
-0.000647291
-0.000548333
-0.000392483
-0.000275373
-0.0001366
-2.07105e-05
0.000132956
0.000180388
0.000648159
-9.62691e-05
-0.000674513
-0.000572147
-0.000410384
-0.000290411
-0.000153912
-3.5126e-05
0.000116218
0.00016292
0.000643064
-9.68722e-05
-0.000702322
-0.000594595
-0.000425191
-0.00030252
-0.00016921
-4.72979e-05
9.97837e-05
0.000146602
0.000640601
-9.70769e-05
-0.000729219
-0.000614732
-0.000436051
-0.000311105
-0.000181897
-5.72734e-05
8.40791e-05
0.000132885
0.000641209
-9.65037e-05
-0.000752552
-0.000629136
-0.000440799
-0.00031467
-0.000191032
-6.33447e-05
7.1319e-05
0.000122949
0.000644343
-9.53047e-05
-0.000767814
-0.000636833
-0.000439982