/*--------------------------------*- C++ -*----------------------------------*\
| =========                 |                                                 |
| \\      /  F ield         | foam-extend: Open Source CFD                    |
|  \\    /   O peration     | Version:     3.2                                |
|   \\  /    A nd           | Web:         http://www.foam-extend.org         |
|    \\/     M anipulation  | For copyright notice see file Copyright         |
\*---------------------------------------------------------------------------*/
FoamFile
{
    version     2.0;
    format      ascii;
    class       surfaceScalarField;
    location    "1200000";
    object      phi;
}
// * * * * * * * * * * * * * * * * * * * * * * * * * * * * * * * * * * * * * //

dimensions      [0 3 -1 0 0 0 0];

internalField   nonuniform List<scalar> 
13900
(
0.0105113
-3.34383e-09
-0.00526049
0.0105112
4.44572e-09
-0.0052605
0.0105112
1.21635e-08
-0.0052605
0.0105112
1.56946e-08
-0.00526051
0.0105112
1.79975e-08
-0.00526051
0.0105112
1.75541e-08
-0.00526052
0.0105112
1.97532e-08
-0.00526053
0.0105112
1.67709e-08
-0.00526054
0.0105112
2.0999e-08
-0.00526055
1.08863e-08
-0.00526057
0.0144974
-7.81735e-09
-0.00699799
0.0144974
5.88338e-09
-0.006998
0.0144974
2.10422e-08
-0.006998
0.0144974
2.77281e-08
-0.00699801
0.0144973
3.26524e-08
-0.00699801
0.0144973
3.3098e-08
-0.00699802
0.0144973
3.74162e-08
-0.00699803
0.0144973
3.32644e-08
-0.00699804
0.0144973
4.03026e-08
-0.00699805
2.2144e-08
-0.00699808
0.0173145
-1.37174e-08
-0.00809746
0.0173145
4.47557e-09
-0.00809747
0.0173145
2.67999e-08
-0.00809747
0.0173145
3.59801e-08
-0.00809748
0.0173145
4.35734e-08
-0.00809749
0.0173145
4.5249e-08
-0.0080975
0.0173144
5.18157e-08
-0.0080975
0.0173144
4.71032e-08
-0.00809752
0.0173144
5.63874e-08
-0.00809753
3.2022e-08
-0.00809755
0.0197917
-2.09132e-08
-0.00897173
0.0197917
7.23877e-10
-0.00897174
0.0197917
2.97937e-08
-0.00897174
0.0197916
4.06976e-08
-0.00897175
0.0197916
5.11965e-08
-0.00897176
0.0197916
5.43494e-08
-0.00897177
0.0197916
6.30661e-08
-0.00897178
0.0197916
5.78948e-08
-0.00897179
0.0197916
6.88662e-08
-0.0089718
3.98426e-08
-0.00897183
0.0221513
-2.66439e-08
-0.00972613
0.0221513
-4.43208e-09
-0.00972613
0.0221513
2.61637e-08
-0.00972614
0.0221513
4.04617e-08
-0.00972615
0.0221513
5.75022e-08
-0.00972616
0.0221513
6.11448e-08
-0.00972617
0.0221513
7.10071e-08
-0.00972618
0.0221513
6.54727e-08
-0.00972619
0.0221513
7.78354e-08
-0.00972621
4.53869e-08
-0.00972623
0.024493
-3.36426e-08
-0.0104014
0.024493
-1.0768e-08
-0.0104014
0.024493
2.16973e-08
-0.0104014
0.024493
3.82162e-08
-0.0104014
0.024493
5.86467e-08
-0.0104014
0.024493
6.39423e-08
-0.0104014
0.024493
7.57652e-08
-0.0104014
0.024493
6.99122e-08
-0.0104015
0.024493
8.33691e-08
-0.0104015
4.85029e-08
-0.0104015
0.0268696
-4.26209e-08
-0.011014
0.0268696
-1.90655e-08
-0.011014
0.0268696
1.54117e-08
-0.011014
0.0268696
3.36545e-08
-0.011014
0.0268696
5.67042e-08
-0.011014
0.0268696
6.3331e-08
-0.011014
0.0268696
7.71514e-08
-0.0110141
0.0268696
7.1106e-08
-0.0110141
0.0268696
8.54746e-08
-0.0110141
4.89907e-08
-0.0110141
0.0293131
-5.35837e-08
-0.0115692
0.0293131
-2.95041e-08
-0.0115692
0.0293131
6.45389e-09
-0.0115692
0.0293131
2.62533e-08
-0.0115692
0.0293131
5.19755e-08
-0.0115692
0.0293131
5.9591e-08
-0.0115692
0.0293131
7.53199e-08
-0.0115693
0.0293131
6.90815e-08
-0.0115693
0.0293131
8.41838e-08
-0.0115693
4.66982e-08
-0.0115693
0.0318442
-6.68134e-08
-0.0120661
0.0318442
-4.23837e-08
-0.0120661
0.0318442
-5.19987e-09
-0.0120661
0.0318442
1.59814e-08
-0.0120661
0.0318442
4.40053e-08
-0.0120661
0.0318442
5.2494e-08
-0.0120662
0.0318442
7.02019e-08
-0.0120662
0.0318442
6.37689e-08
-0.0120662
0.0318442
7.95413e-08
-0.0120662
4.14971e-08
-0.0120662
0.0344767
-8.25846e-08
-0.0125
0.0344767
-5.78939e-08
-0.0125
0.0344767
-1.97062e-08
-0.0125
0.0344767
2.57187e-09
-0.0125
0.0344767
3.2597e-08
-0.0125001
0.0344767
4.18754e-08
-0.0125001
0.0344767
6.15226e-08
-0.0125001
0.0344767
5.49433e-08
-0.0125001
0.0344767
7.14622e-08
-0.0125001
3.31816e-08
-0.0125002
0.03722
-1.01198e-07
-0.0128636
0.03722
-7.63314e-08
-0.0128636
0.03722
-3.73261e-08
-0.0128636
0.03722
-1.41691e-08
-0.0128636
0.03722
1.75505e-08
-0.0128636
0.03722
2.75006e-08
-0.0128637
0.03722
4.89647e-08
-0.0128637
0.03722
4.23218e-08
-0.0128637
0.03722
5.97389e-08
-0.0128637
2.14789e-08
-0.0128638
0.0400793
-1.22957e-07
-0.0131476
0.0400793
-9.7973e-08
-0.0131476
0.0400794
-5.83399e-08
-0.0131476
0.0400794
-3.45387e-08
-0.0131476
0.0400794
-1.40686e-09
-0.0131476
0.0400794
9.10221e-09
-0.0131477
0.0400794
3.22187e-08
-0.0131477
0.0400794
2.5587e-08
-0.0131477
0.0400794
4.40652e-08
-0.0131477
6.05463e-09
-0.0131478
0.0430569
-1.48181e-07
-0.0133413
0.0430569
-1.23153e-07
-0.0133413
0.0430569
-8.31045e-08
-0.0133413
0.0430569
-5.88379e-08
-0.0133413
0.0430569
-2.45786e-08
-0.0133413
0.0430569
-1.36284e-08
-0.0133414
0.0430569
1.096e-08
-0.0133414
0.0430569
4.39266e-09
-0.0133414
0.0430569
2.40563e-08
-0.0133415
-1.34919e-08
-0.0133415
0.0461513
-1.77206e-07
-0.0134331
0.0461513
-1.52207e-07
-0.0134331
0.0461513
-1.11964e-07
-0.0134331
0.0461513
-8.74071e-08
-0.0134332
0.0461514
-5.23151e-08
-0.0134332
0.0461514
-4.10358e-08
-0.0134332
0.0461514
-1.51613e-08
-0.0134333
0.0461514
-2.16299e-08
-0.0134333
0.0461514
-7.18691e-10
-0.0134333
-3.75952e-08
-0.0134334
0.0493581
-2.10378e-07
-0.013411
0.0493581
-1.85491e-07
-0.013411
0.0493581
-1.45294e-07
-0.0134111
0.0493581
-1.206e-07
-0.0134111
0.0493581
-8.49743e-08
-0.0134111
0.0493581
-7.34741e-08
-0.0134112
0.0493581
-4.65045e-08
-0.0134112
0.0493581
-5.28594e-08
-0.0134112
0.0493582
-3.07004e-08
-0.0134113
-6.66926e-08
-0.0134113
0.052669
-2.48042e-07
-0.0132631
0.0526691
-2.23358e-07
-0.0132631
0.0526691
-1.83451e-07
-0.0132632
0.0526691
-1.58773e-07
-0.0132632
0.0526691
-1.22932e-07
-0.0132632
0.0526691
-1.11302e-07
-0.0132633
0.0526691
-8.34489e-08
-0.0132633
0.0526691
-8.96824e-08
-0.0132633
0.0526692
-6.6327e-08
-0.0132634
-1.01222e-07
-0.0132634
0.0560725
-2.90539e-07
-0.0129782
0.0560725
-2.66159e-07
-0.0129782
0.0560725
-2.26789e-07
-0.0129783
0.0560725
-2.02272e-07
-0.0129783
0.0560725
-1.66534e-07
-0.0129783
0.0560725
-1.54861e-07
-0.0129784
0.0560726
-1.26361e-07
-0.0129784
0.0560726
-1.32466e-07
-0.0129785
0.0560726
-1.08023e-07
-0.0129785
-1.41597e-07
-0.0129786
0.0595528
-3.38187e-07
-0.0125468
0.0595528
-3.14222e-07
-0.0125469
0.0595528
-2.75628e-07
-0.0125469
0.0595528
-2.51416e-07
-0.0125469
0.0595529
-2.16098e-07
-0.012547
0.0595529
-2.04457e-07
-0.012547
0.0595529
-1.75581e-07
-0.0125471
0.0595529
-1.81533e-07
-0.0125471
0.0595529
-1.5617e-07
-0.0125472
-1.88182e-07
-0.0125472
0.0630906
-3.91265e-07
-0.011962
0.0630906
-3.67835e-07
-0.011962
0.0630907
-3.30244e-07
-0.011962
0.0630907
-3.06467e-07
-0.0119621
0.0630907
-2.71878e-07
-0.0119621
0.0630907
-2.60334e-07
-0.0119622
0.0630908
-2.31379e-07
-0.0119622
0.0630908
-2.37128e-07
-0.0119623
0.0630908
-2.11044e-07
-0.0119623
-2.41265e-07
-0.0119624
0.066663
-4.49985e-07
-0.0112203
0.066663
-4.27208e-07
-0.0112203
0.066663
-3.9082e-07
-0.0112204
0.066663
-3.67602e-07
-0.0112204
0.0666631
-3.34029e-07
-0.0112205
0.0666631
-3.22633e-07
-0.0112205
0.0666631
-2.93894e-07
-0.0112206
0.0666632
-2.99379e-07
-0.0112206
0.0666632
-2.72847e-07
-0.0112207
-3.01023e-07
-0.0112208
0.0702436
-5.14455e-07
-0.0103235
0.0702436
-4.92449e-07
-0.0103235
0.0702436
-4.57428e-07
-0.0103236
0.0702437
-4.34873e-07
-0.0103236
0.0702437
-4.02569e-07
-0.0103237
0.0702437
-3.91363e-07
-0.0103237
0.0702437
-3.63121e-07
-0.0103238
0.0702438
-3.68265e-07
-0.0103239
0.0702438
-3.4162e-07
-0.0103239
-3.67471e-07
-0.010324
0.0738036
-5.8468e-07
-0.00927944
0.0738037
-5.6357e-07
-0.00927946
0.0738037
-5.3004e-07
-0.00927951
0.0738037
-5.08228e-07
-0.00927956
0.0738038
-4.77414e-07
-0.00927963
0.0738038
-4.66419e-07
-0.00927968
0.0738039
-4.38939e-07
-0.00927975
0.0738039
-4.43639e-07
-0.0092798
0.0738039
-4.17243e-07
-0.00927987
-4.40466e-07
-0.00927999
0.0773132
-6.60202e-07
-0.00810375
0.0773132
-6.40093e-07
-0.00810377
0.0773133
-6.08114e-07
-0.00810382
0.0773133
-5.87089e-07
-0.00810388
0.0773134
-5.57938e-07
-0.00810395
0.0773134
-5.47166e-07
-0.008104
0.0773134
-5.20672e-07
-0.00810408
0.0773135
-5.24821e-07
-0.00810413
0.0773135
-4.99027e-07
-0.0081042
-5.19333e-07
-0.00810433
0.0807427
-7.40028e-07
-0.00682112
0.0807428
-7.20995e-07
-0.00682114
0.0807428
-6.90552e-07
-0.0068212
0.0807429
-6.70314e-07
-0.00682126
0.0807429
-6.42935e-07
-0.00682133
0.0807429
-6.32377e-07
-0.00682139
0.080743
-6.0703e-07
-0.00682146
0.080743
-6.10524e-07
-0.00682152
0.0807431
-5.85624e-07
-0.0068216
-6.0278e-07
-0.00682173
0.0840657
-8.21895e-07
-0.00546636
0.0840657
-8.03959e-07
-0.00546638
0.0840658
-7.74957e-07
-0.00546645
0.0840658
-7.55469e-07
-0.0054665
0.0840659
-7.29914e-07
-0.00546658
0.0840659
-7.19561e-07
-0.00546664
0.084066
-6.9545e-07
-0.00546672
0.084066
-6.98222e-07
-0.00546678
0.0840661
-6.74409e-07
-0.00546686
-6.88298e-07
-0.00546699
0.0872618
-9.01311e-07
-0.00408495
0.0872618
-8.84417e-07
-0.00408497
0.0872619
-8.56686e-07
-0.00408503
0.0872619
-8.37864e-07
-0.00408509
0.087262
-8.14145e-07
-0.00408517
0.087262
-8.03985e-07
-0.00408523
0.0872621
-7.81124e-07
-0.00408531
0.0872621
-7.83161e-07
-0.00408537
0.0872622
-7.60479e-07
-0.00408545
-7.71208e-07
-0.00408559
0.0903208
-9.7262e-07
-0.00273263
0.0903209
-9.56586e-07
-0.00273265
0.0903209
-9.29874e-07
-0.00273272
0.090321
-9.11626e-07
-0.00273277
0.090321
-8.89753e-07
-0.00273286
0.0903211
-8.7979e-07
-0.00273291
0.0903211
-8.58157e-07
-0.002733
0.0903212
-8.59534e-07
-0.00273306
0.0903213
-8.37851e-07
-0.00273314
-8.45836e-07
-0.00273328
0.0932472
-1.03636e-06
-0.00147374
0.0932473
-1.02083e-06
-0.00147375
0.0932473
-9.94739e-07
-0.00147382
0.0932474
-9.76956e-07
-0.00147388
0.0932474
-9.56931e-07
-0.00147396
0.0932475
-9.47174e-07
-0.00147402
0.0932475
-9.26728e-07
-0.00147411
0.0932476
-9.27561e-07
-0.00147417
0.0932477
-9.06528e-07
-0.00147425
-9.12552e-07
-0.00147439
0.0960646
-1.095e-06
-0.000377459
0.0960647
-1.07945e-06
-0.000377475
0.0960647
-1.05358e-06
-0.000377545
0.0960648
-1.03627e-06
-0.000377603
0.0960648
-1.01826e-06
-0.000377687
0.0960649
-1.00878e-06
-0.000377744
0.096065
-9.89599e-07
-0.000377835
0.096065
-9.9009e-07
-0.00037789
0.0960651
-9.69307e-07
-0.000377976
-9.74562e-07
-0.000378114
0.0988201
-1.14366e-06
0.000488438
0.0988202
-1.12827e-06
0.000488424
0.0988202
-1.10317e-06
0.000488352
0.0988203
-1.08674e-06
0.000488294
0.0988203
-1.07154e-06
0.000488209
0.0988204
-1.06259e-06
0.000488153
0.0988205
-1.04517e-06
0.000488061
0.0988206
-1.04569e-06
0.000488008
0.0988206
-1.02494e-06
0.000487921
-1.0303e-06
0.000487785
0.101587
-1.18626e-06
0.00106686
0.101587
-1.17146e-06
0.00106684
0.101587
-1.148e-06
0.00106677
0.101588
-1.13309e-06
0.00106671
0.101588
-1.12175e-06
0.00106663
0.101588
-1.11365e-06
0.00106657
0.101588
-1.09866e-06
0.00106648
0.101588
-1.09946e-06
0.00106643
0.101588
-1.07877e-06
0.00106634
-1.08485e-06
0.00106621
0.104465
-1.23123e-06
0.00132348
0.104465
-1.21721e-06
0.00132347
0.104465
-1.19607e-06
0.00132339
0.104465
-1.18324e-06
0.00132334
0.104466
-1.17654e-06
0.00132325
0.104466
-1.16938e-06
0.0013232
0.104466
-1.15736e-06
0.00132311
0.104466
-1.15835e-06
0.00132306
0.104466
-1.13792e-06
0.00132297
-1.14509e-06
0.00132284
0.10757
-1.2797e-06
0.0012604
0.10757
-1.2668e-06
0.00126039
0.10757
-1.24905e-06
0.00126032
0.10757
-1.23901e-06
0.00126027
0.10757
-1.23758e-06
0.00126018
0.10757
-1.23144e-06
0.00126014
0.10757
-1.22276e-06
0.00126005
0.10757
-1.22372e-06
0.00126
0.10757
-1.2049e-06
0.00125992
-1.21312e-06
0.00125979
0.111017
-1.33969e-06
0.000927645
0.111017
-1.32886e-06
0.000927641
0.111017
-1.31635e-06
0.000927571
0.111017
-1.30971e-06
0.000927524
0.111017
-1.31362e-06
0.000927446
0.111017
-1.30852e-06
0.000927405
0.111018
-1.30309e-06
0.000927319
0.111018
-1.3039e-06
0.000927283
0.111018
-1.28985e-06
0.000927204
-1.29782e-06
0.000927089
0.114899
-1.38951e-06
0.000426549
0.114899
-1.38253e-06
0.000426549
0.114899
-1.37885e-06
0.000426488
0.114899
-1.37613e-06
0.000426451
0.114899
-1.38492e-06
0.000426383
0.114899
-1.38112e-06
0.000426353
0.114899
-1.37993e-06
0.000426279
0.114899
-1.38001e-06
0.000426251
0.114899
-1.3739e-06
0.000426183
-1.3795e-06
0.000426088
0.11925
-1.38157e-06
-0.000102677
0.11925
-1.38087e-06
-0.000102674
0.119251
-1.39042e-06
-0.000102719
0.119251
-1.39168e-06
-0.000102744
0.119251
-1.40457e-06
-0.000102793
0.119251
-1.40266e-06
-0.000102812
0.119251
-1.40838e-06
-0.000102866
0.119251
-1.40658e-06
-0.000102885
0.119251
-1.41037e-06
-0.000102934
-1.41122e-06
-0.000103001
0.124029
-1.27076e-06
-0.000516052
0.124029
-1.27759e-06
-0.00051605
0.124029
-1.30038e-06
-0.000516073
0.124029
-1.30652e-06
-0.000516084
0.124029
-1.32353e-06
-0.000516108
0.124029
-1.32429e-06
-0.000516117
0.12403
-1.33922e-06
-0.000516144
0.12403
-1.33462e-06
-0.000516154
0.12403
-1.34865e-06
-0.000516179
-1.3425e-06
-0.000516212
0.129119
-1.06909e-06
-0.000719518
0.129119
-1.08345e-06
-0.000719519
0.129119
-1.11842e-06
-0.000719516
0.129119
-1.12991e-06
-0.000719515
0.129119
-1.15108e-06
-0.000719513
0.12912
-1.15481e-06
-0.000719513
0.12912
-1.17872e-06
-0.000719511
0.12912
-1.17163e-06
-0.000719512
0.12912
-1.19558e-06
-0.000719511
-1.18175e-06
-0.00071951
0.13438
-8.55805e-07
-0.000718716
0.134381
-8.77066e-07
-0.000718718
0.134381
-9.23377e-07
-0.000718692
0.134381
-9.4004e-07
-0.000718679
0.134381
-9.65077e-07
-0.00071865
0.134381
-9.71436e-07
-0.000718642
0.134381
-1.00105e-06
-0.000718612
0.134381
-9.92763e-07
-0.000718605
0.134381
-1.02616e-06
-0.000718578
-1.00506e-06
-0.000718544
0.139737
-6.78503e-07
-0.000619649
0.139737
-7.04869e-07
-0.000619651
0.139737
-7.5826e-07
-0.000619601
0.139737
-7.79876e-07
-0.000619573
0.139737
-8.08736e-07
-0.000619518
0.139737
-8.17026e-07
-0.000619496
0.139737
-8.4897e-07
-0.000619437
0.139737
-8.41039e-07
-0.000619419
0.139737
-8.81257e-07
-0.000619364
-8.54517e-07
-0.000619291
0.145227
-5.51432e-07
-0.000529119
0.145227
-5.80705e-07
-0.000529113
0.145227
-6.35325e-07
-0.000529044
0.145227
-6.60889e-07
-0.000528994
0.145227
-6.94158e-07
-0.000528914
0.145227
-7.03681e-07
-0.000528871
0.145227
-7.38543e-07
-0.000528785
0.145227
-7.29976e-07
-0.000528744
0.145227
-7.70248e-07
-0.000528663
-7.41053e-07
-0.000528549
0.150928
-4.6916e-07
-0.00046764
0.150928
-4.99746e-07
-0.00046762
0.150928
-5.51645e-07
-0.000467531
0.150928
-5.78887e-07
-0.000467453
0.150928
-6.16676e-07
-0.000467345
0.150928
-6.26337e-07
-0.000467271
0.150928
-6.64473e-07
-0.000467155
0.150928
-6.54478e-07
-0.000467083
0.150928
-6.92649e-07
-0.000466974
-6.64196e-07
-0.000466805
0.156886
-4.32513e-07
-0.000415158
0.156886
-4.62637e-07
-0.000415115
0.156886
-5.10158e-07
-0.000414996
0.156886
-5.36375e-07
-0.000414879
0.156886
-5.77889e-07
-0.000414732
0.156886
-5.86418e-07
-0.000414611
0.156886
-6.26864e-07
-0.000414456
0.156886
-6.16082e-07
-0.000414337
0.156886
-6.53034e-07
-0.000414191
-6.28239e-07
-0.000413936
0.163114
-4.29212e-07
-0.000358587
0.163114
-4.57091e-07
-0.000358512
0.163114
-5.00782e-07
-0.000358353
0.163114
-5.23783e-07
-0.000358179
0.163114
-5.67237e-07
-0.000357979
0.163114
-5.73839e-07
-0.000357796
0.163114
-6.14834e-07
-0.000357589
0.163115
-6.05428e-07
-0.000357406
0.163115
-6.41761e-07
-0.000357207
-6.21719e-07
-0.000356827
0.169601
-4.46959e-07
-0.000292192
0.169601
-4.71249e-07
-0.000292084
0.169601
-5.11707e-07
-0.000291877
0.169601
-5.30497e-07
-0.00029164
0.169601
-5.73068e-07
-0.000291381
0.169601
-5.78148e-07
-0.000291127
0.169601
-6.17098e-07
-0.000290862
0.169601
-6.10433e-07
-0.000290608
0.169601
-6.45226e-07
-0.000290345
-6.2963e-07
-0.000289822
0.176328
-4.54561e-07
-0.000214364
0.176328
-4.74215e-07
-0.000214226
0.176328
-5.10243e-07
-0.000213975
0.176328
-5.2464e-07
-0.000213678
0.176328
-5.63106e-07
-0.000213362
0.176328
-5.67241e-07
-0.000213044
0.176328
-6.01591e-07
-0.000212722
0.176328
-5.97756e-07
-0.000212402
0.176328
-6.28801e-07
-0.000212078
-6.1748e-07
-0.000211421
0.183285
-4.08456e-07
-0.000134903
0.183285
-4.22821e-07
-0.000134743
0.183285
-4.52003e-07
-0.000134454
0.183285
-4.62225e-07
-0.00013411
0.183285
-4.93584e-07
-0.000133748
0.183285
-4.9697e-07
-0.000133377
0.183285
-5.24503e-07
-0.000133008
0.183285
-5.2281e-07
-0.000132635
0.183285
-5.47626e-07
-0.000132262
-5.40626e-07
-0.000131497
0.190477
-2.94386e-07
-6.94196e-05
0.190477
-3.03459e-07
-6.9243e-05
0.190477
-3.23743e-07
-6.89267e-05
0.190477
-3.30154e-07
-6.85481e-05
0.190477
-3.52177e-07
-6.81512e-05
0.190477
-3.54648e-07
-6.77443e-05
0.190477
-3.73776e-07
-6.73393e-05
0.190477
-3.73346e-07
-6.69296e-05
0.190477
-3.90275e-07
-6.65196e-05
-3.86892e-07
-6.5676e-05
0.197922
-1.50219e-07
-2.66786e-05
0.197922
-1.54535e-07
-2.64908e-05
0.197922
-1.64893e-07
-2.61537e-05
0.197922
-1.67955e-07
-2.57511e-05
0.197922
-1.79325e-07
-2.53281e-05
0.197922
-1.80647e-07
-2.48953e-05
0.197922
-1.90465e-07
-2.44637e-05
0.197922
-1.90497e-07
-2.40279e-05
0.197922
-1.99012e-07
-2.35909e-05
-1.97876e-07
-2.26914e-05
0.20564
-6.03363e-06
0.20564
-5.83697e-06
0.20564
-5.48348e-06
0.20564
-5.06178e-06
0.20564
-4.61812e-06
0.20564
-4.16487e-06
0.20564
-3.71205e-06
0.20564
-3.25558e-06
0.20564
-2.79732e-06
-1.85416e-06
0.0105112
1.21099e-09
-0.0052605
0.0105112
7.85015e-09
-0.0052605
0.0105112
1.49595e-08
-0.0052605
0.0105112
1.93269e-08
-0.00526051
0.0105112
2.29074e-08
-0.00526052
0.0105111
2.21528e-08
-0.00526053
0.0105111
2.46671e-08
-0.00526053
0.0105111
2.14866e-08
-0.00526055
0.0105111
2.56774e-08
-0.00526056
1.62033e-08
-0.00526059
0.0144973
1.03059e-09
-0.00699799
0.0144973
1.2868e-08
-0.006998
0.0144973
2.63655e-08
-0.006998
0.0144973
3.44837e-08
-0.00699801
0.0144973
4.14333e-08
-0.00699801
0.0144973
4.13925e-08
-0.00699803
0.0144973
4.63289e-08
-0.00699803
0.0144973
4.19932e-08
-0.00699805
0.0144972
4.92134e-08
-0.00699806
3.21732e-08
-0.00699809
0.0173144
-1.35956e-09
-0.00809747
0.0173144
1.45624e-08
-0.00809747
0.0173144
3.40768e-08
-0.00809747
0.0173144
4.51393e-08
-0.00809748
0.0173144
5.51903e-08
-0.00809749
0.0173144
5.63042e-08
-0.0080975
0.0173144
6.36493e-08
-0.00809751
0.0173144
5.8823e-08
-0.00809752
0.0173144
6.84589e-08
-0.00809754
4.54205e-08
-0.00809756
0.0197916
-6.07357e-09
-0.00897173
0.0197916
1.31532e-08
-0.00897174
0.0197916
3.83028e-08
-0.00897174
0.0197916
5.13342e-08
-0.00897175
0.0197916
6.43659e-08
-0.00897176
0.0197916
6.71426e-08
-0.00897177
0.0197916
7.67408e-08
-0.00897178
0.0197916
7.15008e-08
-0.00897179
0.0197915
8.29165e-08
-0.00897181
5.51761e-08
-0.00897184
0.0221513
-1.1034e-08
-0.00972613
0.0221513
9.19639e-09
-0.00972613
0.0221513
3.65042e-08
-0.00972614
0.0221513
5.19005e-08
-0.00972615
0.0221513
6.96097e-08
-0.00972616
0.0221513
7.45213e-08
-0.00972617
0.0221512
8.57391e-08
-0.00972618
0.0221512
7.99809e-08
-0.0097262
0.0221512
9.27428e-08
-0.00972621
6.12987e-08
-0.00972624
0.0244929
-1.84412e-08
-0.0104014
0.0244929
2.65313e-09
-0.0104014
0.0244929
3.18678e-08
-0.0104014
0.0244929
4.94264e-08
-0.0104014
0.0244929
6.97378e-08
-0.0104014
0.0244929
7.6977e-08
-0.0104014
0.0244929
9.0186e-08
-0.0104014
0.0244929
8.42271e-08
-0.0104015
0.0244929
9.81267e-08
-0.0104015
6.37751e-08
-0.0104015
0.0268696
-2.9014e-08
-0.011014
0.0268696
-7.02428e-09
-0.011014
0.0268696
2.44219e-08
-0.011014
0.0268696
4.33818e-08
-0.011014
0.0268695
6.55847e-08
-0.011014
0.0268695
7.47224e-08
-0.011014
0.0268695
8.99501e-08
-0.0110141
0.0268695
8.42027e-08
-0.0110141
0.0268695
9.91585e-08
-0.0110141
6.25636e-08
-0.0110141
0.029313
-4.27867e-08
-0.0115692
0.029313
-1.99861e-08
-0.0115692
0.029313
1.32557e-08
-0.0115692
0.029313
3.34967e-08
-0.0115692
0.029313
5.76474e-08
-0.0115692
0.029313
6.79501e-08
-0.0115692
0.029313
8.50002e-08
-0.0115692
0.029313
7.96764e-08
-0.0115693
0.029313
9.56666e-08
-0.0115693
5.75197e-08
-0.0115693
0.0318441
-5.9997e-08
-0.0120661
0.0318441
-3.65104e-08
-0.0120661
0.0318441
-1.89628e-09
-0.0120661
0.0318441
1.96245e-08
-0.0120661
0.0318441
4.56905e-08
-0.0120661
0.0318441
5.66444e-08
-0.0120661
0.0318441
7.53904e-08
-0.0120662
0.0318441
7.04164e-08
-0.0120662
0.0318441
8.74601e-08
-0.0120662
4.84666e-08
-0.0120662
0.0344766
-8.08956e-08
-0.0125
0.0344766
-5.68573e-08
-0.0125
0.0344766
-2.1198e-08
-0.0125
0.0344766
1.4784e-09
-0.0125
0.0344766
2.93633e-08
-0.0125
0.0344766
4.07362e-08
-0.0125001
0.0344766
6.10834e-08
-0.0125001
0.0344766
5.62672e-08
-0.0125001
0.0344766
7.43713e-08
-0.0125001
3.5146e-08
-0.0125002
0.0372199
-1.05815e-07
-0.0128636
0.0372199
-8.13248e-08
-0.0128636
0.0372199
-4.48382e-08
-0.0128636
0.0372199
-2.12238e-08
-0.0128636
0.0372199
8.30292e-09
-0.0128636
0.0372199
1.9998e-08
-0.0128636
0.0372199
4.18698e-08
-0.0128637
0.0372199
3.70545e-08
-0.0128637
0.0372199
5.62117e-08
-0.0128637
1.72682e-08
-0.0128638
0.0400792
-1.35082e-07
-0.0131475
0.0400792
-1.10204e-07
-0.0131475
0.0400792
-7.30634e-08
-0.0131476
0.0400792
-4.87779e-08
-0.0131476
0.0400792
-1.78415e-08
-0.0131476
0.0400793
-5.88461e-09
-0.0131476
0.0400793
1.74133e-08
-0.0131477
0.0400793
1.2532e-08
-0.0131477
0.0400793
3.27294e-08
-0.0131477
-5.50671e-09
-0.0131478
0.0430568
-1.69041e-07
-0.0133412
0.0430568
-1.43839e-07
-0.0133413
0.0430568
-1.06212e-07
-0.0133413
0.0430568
-8.1484e-08
-0.0133413
0.0430568
-4.93931e-08
-0.0133413
0.0430568
-3.7243e-08
-0.0133413
0.0430568
-1.26674e-08
-0.0133414
0.0430568
-1.7587e-08
-0.0133414
0.0430568
3.62702e-09
-0.0133414
-3.35853e-08
-0.0133415
0.0461512
-2.08029e-07
-0.0134331
0.0461512
-1.82568e-07
-0.0134331
0.0461512
-1.44628e-07
-0.0134331
0.0461512
-1.19661e-07
-0.0134331
0.0461512
-8.66782e-08
-0.0134332
0.0461512
-7.44221e-08
-0.0134332
0.0461512
-4.87596e-08
-0.0134332
0.0461512
-5.36458e-08
-0.0134333
0.0461512
-3.14282e-08
-0.0134333
-6.73788e-08
-0.0134334
0.0493579
-2.52377e-07
-0.013411
0.0493579
-2.2673e-07
-0.013411
0.0493579
-1.88664e-07
-0.013411
0.049358
-1.63627e-07
-0.0134111
0.049358
-1.30022e-07
-0.0134111
0.049358
-1.17755e-07
-0.0134111
0.049358
-9.12121e-08
-0.0134112
0.049358
-9.60093e-08
-0.0134112
0.049358
-7.28028e-08
-0.0134112
-1.07289e-07
-0.0134113
0.0526689
-3.02387e-07
-0.0132631
0.0526689
-2.76637e-07
-0.0132631
0.0526689
-2.38641e-07
-0.0132631
0.0526689
-2.13677e-07
-0.0132631
0.0526689
-1.79749e-07
-0.0132632
0.0526689
-1.67535e-07
-0.0132632
0.0526689
-1.40321e-07
-0.0132633
0.052669
-1.45011e-07
-0.0132633
0.052669
-1.20869e-07
-0.0132633
-1.53712e-07
-0.0132634
0.0560723
-3.58313e-07
-0.0129782
0.0560723
-3.32553e-07
-0.0129782
0.0560723
-2.94833e-07
-0.0129782
0.0560723
-2.70059e-07
-0.0129783
0.0560723
-2.3612e-07
-0.0129783
0.0560724
-2.24002e-07
-0.0129783
0.0560724
-1.96314e-07
-0.0129784
0.0560724
-2.00915e-07
-0.0129784
0.0560724
-1.7595e-07
-0.0129785
-2.06987e-07
-0.0129786
0.0595526
-4.20346e-07
-0.0125468
0.0595526
-3.94685e-07
-0.0125468
0.0595526
-3.57443e-07
-0.0125468
0.0595526
-3.3296e-07
-0.0125469
0.0595526
-2.99306e-07
-0.0125469
0.0595527
-2.87332e-07
-0.012547
0.0595527
-2.59355e-07
-0.012547
0.0595527
-2.63891e-07
-0.0125471
0.0595527
-2.38286e-07
-0.0125471
-2.67367e-07
-0.0125472
0.0630904
-4.8856e-07
-0.0119619
0.0630904
-4.63124e-07
-0.0119619
0.0630904
-4.26552e-07
-0.011962
0.0630905
-4.02441e-07
-0.011962
0.0630905
-3.69361e-07
-0.0119621
0.0630905
-3.57557e-07
-0.0119621
0.0630905
-3.2953e-07
-0.0119622
0.0630905
-3.33957e-07
-0.0119622
0.0630906
-3.07878e-07
-0.0119623
-3.34892e-07
-0.0119624
0.0666627
-5.62903e-07
-0.0112203
0.0666628
-5.37813e-07
-0.0112203
0.0666628
-5.02066e-07
-0.0112203
0.0666628
-4.78419e-07
-0.0112204
0.0666628
-4.46182e-07
-0.0112204
0.0666628
-4.34563e-07
-0.0112205
0.0666629
-4.06724e-07
-0.0112205
0.0666629
-4.10976e-07
-0.0112206
0.0666629
-3.84542e-07
-0.0112207
-4.09397e-07
-0.0112208
0.0702433
-6.43042e-07
-0.0103235
0.0702433
-6.18427e-07
-0.0103235
0.0702433
-5.83642e-07
-0.0103235
0.0702434
-5.60542e-07
-0.0103236
0.0702434
-5.29382e-07
-0.0103236
0.0702434
-5.17956e-07
-0.0103237
0.0702434
-4.90525e-07
-0.0103237
0.0702435
-4.94529e-07
-0.0103238
0.0702435
-4.67897e-07
-0.0103239
-4.90483e-07
-0.010324
0.0738034
-7.28547e-07
-0.00927938
0.0738034
-7.04584e-07
-0.0092794
0.0738034
-6.70905e-07
-0.00927945
0.0738034
-6.48408e-07
-0.0092795
0.0738035
-6.18515e-07
-0.00927957
0.0738035
-6.07259e-07
-0.00927962
0.0738035
-5.80429e-07
-0.00927969
0.0738036
-5.84081e-07
-0.00927974
0.0738036
-5.57449e-07
-0.00927981
-5.77603e-07
-0.00927993
0.0773129
-8.1826e-07
-0.00810369
0.0773129
-7.95145e-07
-0.00810371
0.0773129
-7.62695e-07
-0.00810377
0.077313
-7.40841e-07
-0.00810382
0.077313
-7.12367e-07
-0.00810389
0.077313
-7.01252e-07
-0.00810394
0.0773131
-6.75188e-07
-0.00810402
0.0773131
-6.78376e-07
-0.00810407
0.0773132
-6.51968e-07
-0.00810415
-6.69494e-07
-0.00810427
0.0807424
-9.1011e-07
-0.00682107
0.0807424
-8.88042e-07
-0.00682109
0.0807424
-8.56895e-07
-0.00682114
0.0807425
-8.35703e-07
-0.0068212
0.0807425
-8.08749e-07
-0.00682127
0.0807426
-7.97739e-07
-0.00682133
0.0807426
-7.72552e-07
-0.00682141
0.0807426
-7.7516e-07
-0.00682147
0.0807427
-7.49187e-07
-0.00682154
-7.63864e-07
-0.00682167
0.0840653
-9.99887e-07
-0.00546632
0.0840653
-9.79052e-07
-0.00546633
0.0840653
-9.49241e-07
-0.0054664
0.0840654
-9.2871e-07
-0.00546645
0.0840654
-9.03334e-07
-0.00546653
0.0840655
-8.92398e-07
-0.00546659
0.0840655
-8.68138e-07
-0.00546667
0.0840656
-8.70068e-07
-0.00546673
0.0840656
-8.44705e-07
-0.00546681
-8.56334e-07
-0.00546695
0.0872612
-1.07954e-06
-0.00408491
0.0872613
-1.06007e-06
-0.00408493
0.0872613
-1.03156e-06
-0.004085
0.0872614
-1.01167e-06
-0.00408505
0.0872614
-9.87894e-07
-0.00408513
0.0872615
-9.77017e-07
-0.00408519
0.0872615
-9.53682e-07
-0.00408528
0.0872616
-9.54885e-07
-0.00408534
0.0872616
-9.30226e-07
-0.00408542
-9.38734e-07
-0.00408556
0.0903201
-1.13718e-06
-0.00273262
0.0903202
-1.11911e-06
-0.00273264
0.0903202
-1.09182e-06
-0.00273271
0.0903203
-1.07254e-06
-0.00273277
0.0903204
-1.05041e-06
-0.00273285
0.0903204
-1.03962e-06
-0.00273291
0.0903205
-1.01719e-06
-0.002733
0.0903205
-1.01771e-06
-0.00273306
0.0903206
-9.93754e-07
-0.00273314
-9.99331e-07
-0.00273328
0.0932465
-1.17231e-06
-0.00147375
0.0932465
-1.15561e-06
-0.00147377
0.0932466
-1.12938e-06
-0.00147384
0.0932466
-1.11066e-06
-0.0014739
0.0932467
-1.0902e-06
-0.00147398
0.0932467
-1.07951e-06
-0.00147404
0.0932468
-1.05794e-06
-0.00147413
0.0932469
-1.05787e-06
-0.00147419
0.0932469
-1.03446e-06
-0.00147428
-1.03753e-06
-0.00147442
0.096064
-1.1944e-06
-0.000377494
0.096064
-1.17887e-06
-0.000377509
0.0960641
-1.15347e-06
-0.000377581
0.0960641
-1.13532e-06
-0.000377639
0.0960642
-1.1167e-06
-0.000377724
0.0960643
-1.10618e-06
-0.000377782
0.0960643
-1.08555e-06
-0.000377874
0.0960644
-1.08509e-06
-0.000377931
0.0960645
-1.06201e-06
-0.000378018
-1.06343e-06
-0.000378158
0.0988198
-1.20538e-06
0.000488388
0.0988198
-1.19058e-06
0.000488374
0.0988199
-1.16619e-06
0.000488302
0.09882
-1.14896e-06
0.000488244
0.09882
-1.13312e-06
0.000488159
0.0988201
-1.12307e-06
0.000488102
0.0988202
-1.1042e-06
0.000488009
0.0988202
-1.10364e-06
0.000487955
0.0988203
-1.08087e-06
0.000487867
-1.08228e-06
0.000487729
0.101587
-1.21602e-06
0.0010668
0.101587
-1.20148e-06
0.00106679
0.101587
-1.17844e-06
0.00106672
0.101587
-1.16266e-06
0.00106666
0.101588
-1.15076e-06
0.00106657
0.101588
-1.14149e-06
0.00106652
0.101588
-1.1254e-06
0.00106643
0.101588
-1.12493e-06
0.00106637
0.101588
-1.10262e-06
0.00106629
-1.10559e-06
0.00106615
0.104465
-1.24242e-06
0.00132344
0.104465
-1.22791e-06
0.00132343
0.104465
-1.20656e-06
0.00132335
0.104465
-1.1928e-06
0.0013233
0.104466
-1.18567e-06
0.00132321
0.104466
-1.17741e-06
0.00132316
0.104466
-1.16482e-06
0.00132307
0.104466
-1.16447e-06
0.00132302
0.104466
-1.14298e-06
0.00132293
-1.14837e-06
0.0013228
0.10757
-1.28915e-06
0.00126038
0.10757
-1.27496e-06
0.00126037
0.10757
-1.25637e-06
0.0012603
0.10757
-1.24535e-06
0.00126024
0.10757
-1.24361e-06
0.00126016
0.10757
-1.23648e-06
0.00126011
0.10757
-1.22772e-06
0.00126002
0.10757
-1.22744e-06
0.00125998
0.10757
-1.20811e-06
0.00125989
-1.2158e-06
0.00125977
0.111017
-1.3677e-06
0.000927649
0.111017
-1.35536e-06
0.000927645
0.111017
-1.34182e-06
0.000927575
0.111017
-1.33416e-06
0.000927528
0.111017
-1.33783e-06
0.00092745
0.111017
-1.3318e-06
0.00092741
0.111017
-1.32649e-06
0.000927324
0.111018
-1.32619e-06
0.000927287
0.111018
-1.31203e-06
0.000927207
-1.3202e-06
0.000927091
0.114898
-1.46201e-06
0.000426567
0.114899
-1.45378e-06
0.000426568
0.114899
-1.4492e-06
0.000426507
0.114899
-1.44554e-06
0.000426469
0.114899
-1.45411e-06
0.000426402
0.114899
-1.44944e-06
0.000426371
0.114899
-1.44818e-06
0.000426296
0.114899
-1.44751e-06
0.000426268
0.114899
-1.44159e-06
0.000426199
-1.44745e-06
0.000426103
0.119249
-1.48154e-06
-0.000102733
0.11925
-1.48021e-06
-0.000102729
0.11925
-1.48907e-06
-0.000102775
0.11925
-1.48955e-06
-0.0001028
0.11925
-1.50222e-06
-0.000102849
0.11925
-1.49955e-06
-0.000102869
0.11925
-1.50508e-06
-0.000102923
0.11925
-1.5026e-06
-0.000102943
0.11925
-1.50632e-06
-0.000102993
-1.50701e-06
-0.000103061
0.124027
-1.32291e-06
-0.000516287
0.124028
-1.32945e-06
-0.000516284
0.124028
-1.35184e-06
-0.000516307
0.124028
-1.35734e-06
-0.000516318
0.124028
-1.37407e-06
-0.000516344
0.124028
-1.3742e-06
-0.000516352
0.124028
-1.38886e-06
-0.00051638
0.124028
-1.38369e-06
-0.00051639
0.124028
-1.39744e-06
-0.000516416
-1.39094e-06
-0.00051645
0.129117
-1.03972e-06
-0.000719878
0.129117
-1.05392e-06
-0.000719878
0.129117
-1.08867e-06
-0.000719876
0.129118
-1.09967e-06
-0.000719874
0.129118
-1.12054e-06
-0.000719873
0.129118
-1.1238e-06
-0.000719873
0.129118
-1.14734e-06
-0.000719872
0.129118
-1.13982e-06
-0.000719873
0.129118
-1.16345e-06
-0.000719872
-1.14924e-06
-0.000719872
0.134379
-7.76725e-07
-0.000719054
0.134379
-7.97915e-07
-0.000719057
0.134379
-8.44134e-07
-0.00071903
0.134379
-8.60454e-07
-0.000719017
0.134379
-8.852e-07
-0.000718989
0.134379
-8.91235e-07
-0.000718981
0.134379
-9.20477e-07
-0.000718951
0.134379
-9.11891e-07
-0.000718944
0.13438