/*--------------------------------*- C++ -*----------------------------------*\
| =========                 |                                                 |
| \\      /  F ield         | OpenFOAM: The Open Source CFD Toolbox           |
|  \\    /   O peration     | Version:  v1806                                 |
|   \\  /    A nd           | Web:      www.OpenFOAM.com                      |
|    \\/     M anipulation  |                                                 |
\*---------------------------------------------------------------------------*/
FoamFile
{
    version     2.0;
    format      ascii;
    class       volScalarField;
    location    "350000";
    object      p;
}
// * * * * * * * * * * * * * * * * * * * * * * * * * * * * * * * * * * * * * //

dimensions      [0 2 -2 0 0 0 0];


internalField   nonuniform List<scalar> 
5000
(
9.37785e-14
-2.63194e-08
1.91301e-08
2.03403e-08
2.53079e-08
1.13121e-08
5.97771e-08
2.50794e-08
2.56413e-08
4.05863e-08
-2.75035e-10
-2.75792e-08
1.50466e-08
1.97871e-08
3.10914e-08
8.90561e-09
6.00369e-08
2.6312e-08
2.69402e-08
3.85177e-08
-3.87466e-09
-2.91845e-08
8.06882e-09
1.56797e-08
4.47505e-08
9.14355e-09
6.18331e-08
3.24721e-08
3.32157e-08
3.46958e-08
-2.1801e-09
-2.58271e-08
-1.71958e-09
3.5876e-08
4.03866e-08
1.04782e-09
5.56629e-08
4.56082e-08
3.20462e-08
2.36867e-08
1.25716e-09
-2.48816e-08
-3.22768e-08
6.91904e-08
4.31571e-08
4.91906e-09
5.06123e-08
2.87344e-08
1.88782e-08
2.80136e-08
1.9436e-08
-2.93955e-08
-1.14984e-08
7.39483e-08
3.34957e-08
1.92839e-09
5.76655e-08
2.63159e-08
3.51469e-08
3.63077e-09
2.29451e-08
-2.45618e-08
1.39091e-08
7.86924e-08
3.09759e-08
2.00952e-08
5.84139e-08
9.17223e-09
1.93677e-08
2.99891e-08
4.6496e-08
-3.44265e-08
3.01436e-08
9.47084e-08
3.68121e-08
7.55238e-10
8.47767e-08
1.65799e-08
-1.58427e-08
4.54783e-08
8.42821e-08
-2.74353e-08
5.36328e-08
1.12613e-07
2.36852e-08
-1.26128e-08
7.32146e-08
-2.69774e-08
-2.00608e-08
4.80389e-08
5.62974e-08
1.24239e-09
8.73636e-08
8.92941e-08
7.59151e-09
-1.54923e-08
5.88287e-08
-3.98309e-08
-6.19227e-08
7.25616e-08
7.23643e-08
-5.32426e-08
1.22275e-07
1.75296e-07
5.43098e-08
-8.29323e-08
2.8044e-08
-8.01677e-08
-2.9096e-08
6.00192e-08
7.67678e-08
-6.06044e-08
1.27406e-07
1.99891e-07
7.39646e-08
-1.03558e-07
4.3571e-08
-7.40413e-08
-6.1129e-08
7.43317e-08
1.48435e-07
-4.5611e-09
1.61854e-08
2.59876e-07
6.69029e-08
-2.0466e-07
4.88094e-08
1.91157e-08
-1.33803e-07
-2.59722e-09
1.58095e-07
-6.90591e-08
6.22464e-08
2.1909e-07
5.63992e-08
-2.01557e-07
6.78385e-08
2.0241e-08
-1.56074e-07
1.92262e-08
7.05128e-08
1.01356e-07
3.81909e-08
1.00622e-07
-1.06742e-08
-1.74744e-07
1.2931e-07
1.97149e-08
5.80482e-08
-9.35691e-08
1.19371e-07
-3.00386e-08
-2.93349e-08
1.23483e-07
8.90203e-08
-8.25679e-08
9.67775e-08
-2.06019e-08
-6.58135e-08
-1.33115e-07
1.63597e-07
2.24807e-09
1.02383e-07
-1.74364e-08
6.08821e-08
2.52381e-08
-5.24786e-08
6.76518e-08
4.47572e-08
-1.8617e-07
1.86143e-07
-1.65072e-07
8.04105e-08
1.34979e-07
-1.73875e-07
-7.93171e-08
1.11569e-07
1.12212e-07
-1.33774e-07
-5.58827e-08
1.44991e-07
-5.48453e-08
-1.35352e-08
1.3268e-07
-2.40916e-08
-5.86911e-08
9.09212e-08
3.30939e-08
7.606e-08
-4.67308e-08
1.61701e-07
-2.41681e-07
6.87819e-08
1.78467e-07
-2.24204e-07
8.403e-08
1.32675e-07
-1.45208e-07
7.48335e-08
-1.10293e-07
1.91318e-07
-4.55608e-08
9.45579e-09
1.96852e-08
4.08899e-08
7.09978e-08
1.47879e-08
9.50388e-08
1.11627e-07
-2.48009e-07
6.97344e-09
-4.29007e-08
-1.31575e-07
-8.43071e-08
1.11885e-07
6.15774e-08
-2.02194e-07
1.83881e-07
-3.9609e-09
-1.9905e-07
5.18659e-08
-2.98265e-07
2.07161e-07
5.33576e-08
1.1249e-07
-6.65242e-08
1.62042e-07
1.12443e-07
-1.95026e-07
2.09771e-07
-3.17324e-07
-1.52314e-07
1.05659e-07
3.96606e-08
-2.1757e-07
1.96089e-07
8.75265e-08
-3.53194e-07
-9.16085e-08
2.75788e-07
-4.25614e-08
-7.557e-08
-1.67044e-07
-2.26889e-07
2.42097e-07
1.06006e-07
-1.19541e-07
-4.68695e-08
2.18682e-08
8.69628e-08
-5.57931e-08
1.93639e-08
-5.94976e-07
2.14877e-07
3.16167e-08
6.25861e-08
-3.0417e-07
-1.31324e-07
-7.2728e-08
1.611e-08
-2.34902e-08
1.19981e-07
9.05791e-08
-1.54204e-08
-5.83862e-08
-1.12176e-07
-3.1371e-07
6.32419e-09
2.82628e-08
6.40248e-08
4.14723e-08
-7.9409e-08
5.16082e-08
1.95811e-08
-1.07134e-07
-2.93939e-07
-7.14746e-07
1.39208e-07
-3.78093e-09
6.29812e-08
-3.30186e-08
-7.85031e-08
2.72047e-07
-3.14133e-08
-1.24654e-07
-1.76988e-07
-1.09901e-07
1.41771e-08
3.48482e-08
2.94426e-09
-7.54134e-08
-7.18929e-08
8.28584e-07
-3.06845e-07
-5.54848e-08
-3.00529e-07
-2.05673e-07
-1.34434e-07
-5.64915e-08
-2.072e-08
-1.77126e-07
-2.22352e-07
3.27545e-07
-5.66208e-07
7.02392e-07
-1.34502e-07
-4.01295e-07
-4.56877e-07
6.55179e-08
1.28943e-07
1.30901e-07
-7.56491e-07
8.38664e-07
-2.77789e-07
-2.81924e-07
5.49433e-07
-1.14449e-06
-3.71898e-07
-2.80018e-07
6.80936e-07
9.0033e-07
-1.05113e-06
1.34465e-07
4.93931e-07
-4.57808e-07
3.12671e-07
-8.74193e-07
7.64074e-07
1.25183e-07
-1.99267e-07
1.00407e-06
-1.07592e-06
1.9059e-07
6.98068e-07
-7.30088e-07
6.25558e-07
-9.09091e-08
-9.91511e-08
1.44297e-06
-7.24773e-08
1.74506e-06
-4.33149e-07
-2.21192e-07
8.92913e-07
-4.85281e-07
8.30224e-07
-8.05715e-07
2.3866e-07
8.87025e-07
-9.15697e-07
1.53357e-06
-1.18021e-06
3.37391e-07
2.26411e-07
-3.32878e-07
1.24805e-06
2.34163e-07
-7.88593e-07
4.7265e-08
6.27926e-07
1.25022e-06
-1.13764e-07
-9.61065e-07
-6.02465e-07
8.65389e-07
1.77981e-06
-1.50011e-06
-3.94118e-07
1.49875e-06
-5.76938e-07
1.77368e-06
-1.45631e-06
3.37659e-07
1.03871e-06
-1.91717e-08
1.7154e-06
5.30501e-07
-1.12658e-06
-8.26934e-07
1.00002e-06
-1.81644e-06
-1.08811e-07
2.08463e-06
-2.35548e-06
9.2189e-07
8.52534e-07
-6.10787e-07
1.16416e-06
6.55539e-08
-4.4267e-07
1.31844e-06
-9.35839e-07
1.77579e-06
-5.83907e-07
2.18076e-09
2.92844e-07
1.30167e-06
1.58461e-06
-1.9987e-06
3.91423e-07
-3.2176e-06
4.15825e-07
1.98334e-06
-1.70825e-06
-2.25964e-06
1.24249e-06
3.36247e-06
-1.25156e-06
2.02002e-06
1.78495e-06
1.71003e-07
3.4188e-06
-2.56495e-06
2.20451e-06
6.02808e-07
-2.20797e-06
-1.22671e-06
2.17287e-06
4.4132e-06
-3.71427e-06
-2.68596e-06
-4.87574e-06
-4.71988e-08
4.55715e-06
-4.80769e-06
-5.73287e-07
4.59254e-06
-1.54164e-07
4.45101e-06
1.30927e-06
5.88287e-07
8.30868e-07
-2.84646e-06
2.90195e-06
2.00072e-07
-6.23384e-06
-1.33562e-06
5.57117e-06
5.60242e-06
-5.95601e-06
-4.30835e-06
-3.27872e-06
2.13514e-06
5.24412e-06
-7.15914e-06
-1.90351e-06
4.92999e-06
-2.54158e-07
3.7411e-06
-3.91359e-07
1.67323e-06
1.3565e-06
-6.09182e-06
3.92595e-06
-3.33736e-07
-4.37035e-06
9.57843e-07
5.41375e-06
2.56071e-06
-5.82052e-06
-3.50616e-06
-1.08016e-05
-8.70219e-06
-1.46086e-07
-1.20517e-07
8.32545e-06
1.10601e-05
-4.83654e-06
2.57408e-06
8.30135e-06
1.01165e-06
5.18401e-06
-1.17463e-05
2.11125e-07
4.9764e-06
-4.6402e-06
6.32371e-06
1.94222e-06
-5.87361e-06
-7.31689e-06
-4.53094e-06
4.69132e-06
-3.80866e-06
-1.1618e-05
-3.07396e-06
8.49366e-06
5.90999e-06
-1.77926e-06
-4.21971e-06
-4.18298e-06
7.81917e-08
-8.19542e-06
4.79548e-06
-2.14079e-06
-1.32894e-05
-1.87563e-06
1.15919e-05
1.54508e-06
-3.67159e-06
3.20596e-07
1.16465e-09
7.53167e-09
2.32002e-08
-1.08403e-08
1.12601e-08
7.7787e-08
2.19411e-08
2.167e-08
3.95752e-08
1.22266e-08
8.23248e-09
5.07544e-09
1.92257e-08
-1.57248e-08
1.44409e-08
7.66982e-08
2.38395e-08
2.43089e-08
3.81234e-08
9.72392e-09
1.04328e-08
7.30564e-09
1.83564e-08
-1.90747e-08
2.66989e-08
6.92896e-08
2.40835e-08
3.90408e-08
2.80849e-08
3.09186e-09
3.02377e-08
3.82912e-09
4.78674e-09
-1.18869e-08
2.184e-08
5.20675e-08
1.30822e-08
4.95579e-08
2.72598e-08
-1.35642e-08
2.786e-08
-4.23669e-09
1.13392e-08
3.67313e-09
2.74704e-08
3.97906e-08
2.42941e-08
6.45281e-08
5.23863e-08
-1.20851e-08
3.90189e-08
-1.16224e-08
-6.10156e-09
-1.40556e-09
4.11323e-08
3.50967e-08
2.42899e-08
6.15604e-08
4.22235e-08
2.82859e-08
4.46146e-08
-1.31717e-08
-7.32261e-09
7.63792e-09
5.97211e-08
2.70021e-08
1.59388e-08
7.4218e-08
7.03714e-08
2.59129e-08
5.54079e-08
-5.94286e-08
-2.16657e-08
-9.1541e-09
3.56301e-08
1.05139e-08
5.48921e-08
7.35683e-08
9.04557e-08
1.30466e-08
6.78241e-08
-6.89005e-08
-2.67186e-08
1.11969e-08
-1.13024e-08
5.32522e-08
6.81618e-08
9.38604e-08
1.23243e-07
-2.54939e-09
8.51991e-08
-3.61179e-08
-1.56347e-08
1.87657e-09
-4.12271e-08
9.20685e-08
9.04749e-08
6.42089e-08
1.30879e-07
-3.59143e-08
9.70471e-08
-8.49672e-08
3.50004e-08
2.35366e-08
-5.89062e-08
8.91877e-08
1.88534e-08
5.38513e-08
1.52789e-07
-8.45639e-09
1.12098e-07
-6.13541e-08
9.29804e-08
8.7259e-08
-8.68688e-08
1.57063e-08
3.87913e-08
5.50962e-08
1.34068e-07
6.54188e-08
1.35118e-07
-5.47288e-08
-2.22956e-08
7.62251e-08
-8.47675e-08
-1.00085e-07
3.70118e-08
2.29232e-08
1.55323e-07
1.05054e-07
1.75587e-07
3.64756e-08
5.15081e-09
1.31262e-07
-1.95753e-08
-1.9681e-07
3.71994e-08
8.92067e-08
5.04186e-08
7.8634e-08
2.09871e-07
8.12117e-08
-1.25759e-07
1.58021e-07
5.33544e-08
-2.13462e-07
1.00114e-07
1.88964e-07
9.81083e-08
-7.06743e-08
2.62457e-07
1.25553e-07
-1.12785e-07
2.06269e-07
1.10864e-07
-2.01159e-07
-3.09652e-08
2.19779e-07
1.69862e-07
-9.47168e-08
2.19003e-07
7.73482e-08
-4.61891e-08
-3.41489e-08
1.42438e-07
-1.31368e-08
-6.43356e-08
2.6596e-07
1.31933e-07
3.74342e-08
2.31837e-07
-6.81471e-08
-9.35435e-08
8.48908e-08
-1.38133e-08
-1.48018e-08
1.14036e-07
1.837e-07
-4.14932e-08
1.48652e-07
1.34946e-07
6.83107e-08
-7.71349e-08
-6.56127e-08
1.14012e-07
1.83223e-07
-1.22571e-08
1.24999e-07
2.13908e-07
-5.18029e-08
2.2958e-07
-1.93201e-07
6.46868e-08
-5.93059e-09
-6.37745e-08
1.606e-07
5.18742e-09
3.40533e-09
2.09654e-07
6.16199e-08
1.6918e-07
-4.31048e-08
-1.02099e-07
-2.3803e-07
1.62568e-07
2.99218e-08
-2.01732e-07
2.57381e-07
9.21875e-08
1.57742e-08
2.15408e-07
-6.86766e-08
-1.51541e-07
3.1623e-08
2.96172e-08
-3.42604e-07
1.45134e-07
1.56032e-07
-8.4941e-08
2.18825e-09
5.12868e-08
-1.58792e-08
-2.52233e-07
-1.83299e-07
-1.826e-08
-2.3787e-07
-5.76077e-09
2.26969e-07
-2.06126e-07
1.30127e-07
4.86368e-07
-2.69502e-07
-8.52629e-08
-2.78338e-08
-2.87702e-07
-3.93985e-08
1.13692e-08
-2.24859e-08
-7.13233e-08
4.05057e-08
7.6925e-09
-1.83236e-07
-1.08631e-08
-2.88299e-08
-4.8399e-07
1.59459e-07
2.10111e-08
-1.86654e-07
4.45138e-08
2.05174e-07
2.07385e-07
-3.48448e-07
1.51842e-07
1.30865e-07
-5.82153e-07
4.12128e-07
4.83645e-08
-5.24467e-07
-4.20174e-08
5.1504e-07
-3.11811e-07
-9.79889e-08
-1.93474e-08
-1.59533e-07
-2.87912e-07
8.76135e-07
-4.77768e-07
-2.52436e-07
6.22547e-07
-6.26646e-08
7.90094e-08
-1.64514e-08
-4.01229e-08
1.74677e-07
-6.91906e-07
5.53184e-07
-1.01808e-07
4.40711e-08
7.9181e-08
4.55325e-08
-8.23571e-08
1.41578e-07
-7.19609e-07
3.76926e-07
-1.58479e-07
3.75049e-07
-5.20097e-08
-3.53041e-08
8.50432e-08
9.65492e-08
-3.91569e-07
-1.07835e-07
2.65137e-08
1.66366e-07
-7.21876e-08
3.20792e-07
7.36245e-08
1.2759e-08
-3.34532e-08
5.64935e-07
-5.07693e-07
-2.57508e-07
-7.09026e-08
-1.3241e-07
2.06498e-07
1.89118e-07
-1.87818e-07
-1.65896e-08
-5.15006e-07
7.55495e-07
2.24368e-07
-3.80779e-07
-1.87391e-07
-1.37286e-07
5.85065e-07
4.89946e-07
5.44379e-07
9.34737e-07
-4.17663e-07
-3.50176e-08
5.65775e-07
-2.20088e-07
-2.62514e-07
6.24096e-07
2.32086e-07
-1.97999e-07
-5.38828e-07
-5.60094e-09
1.77348e-07
-5.13875e-07
1.30202e-06
-1.37535e-07
-4.07535e-07
1.11359e-06
-3.36164e-07
6.16008e-08
7.34268e-07
-6.23574e-07
4.87731e-07
-2.79834e-07
7.54161e-07
6.86746e-07
-7.74581e-07
5.68799e-07
3.80415e-07
-4.22568e-07
9.04022e-08
2.20362e-07
-3.80104e-07
-9.06128e-07
1.18554e-06
2.90324e-07
-7.39895e-07
-1.11963e-06
1.19417e-07
1.0129e-06
-9.26234e-07
9.81226e-08
4.07121e-07
-5.29957e-07
1.68445e-06
-1.23748e-06
-3.32641e-08
5.75982e-08
-7.18019e-07
9.32971e-07
-7.96238e-08
-8.22228e-07
-6.15552e-07
5.15837e-07
1.173e-06
8.51357e-09
-1.32667e-06
-1.66362e-06
5.90452e-07
1.8718e-06
-1.18128e-06
5.40539e-07
3.88643e-07
-7.86055e-07
1.12264e-06
-2.08171e-06
2.95353e-07
-1.05796e-06
-7.41334e-07
-1.27335e-06
3.01848e-07
2.0564e-06
-2.34784e-06
2.61803e-07
-1.70697e-06
1.35371e-06
2.15119e-06
-2.8965e-06
1.39316e-06
2.88203e-06
-1.1737e-06
1.28146e-06
5.5836e-07
-1.71529e-06
5.00688e-07
-1.19265e-06
-1.76958e-06
1.2054e-06
2.50815e-06
-2.28969e-06
1.24679e-06
8.78463e-07
-1.34224e-06
1.3454e-06
-2.50813e-06
2.23221e-06
8.82695e-07
-1.37804e-06
-4.47966e-06
-7.56599e-07
2.17915e-06
-2.67625e-06
2.30919e-06
7.31528e-07
1.75254e-06
3.60935e-06
-4.0447e-06
1.86411e-06
5.44077e-07
-4.81925e-06
-5.4311e-06
8.5688e-07
5.70877e-06
-3.67887e-06
-2.0636e-06
-4.27117e-06
-1.15493e-07
3.3102e-06
-4.48146e-07
-2.54145e-06
-1.03259e-06
-2.25911e-06
3.32499e-06
2.51203e-07
-1.9772e-06
9.79388e-07
-4.07021e-06
3.34726e-06
-4.93992e-07
-6.97423e-06
-5.01764e-07
7.00115e-06
4.50876e-06
-6.81204e-06
8.40685e-06
-5.53919e-06
1.01879e-06
5.36426e-06
-1.36599e-05
-4.36142e-06
1.14796e-05
9.4326e-06
-4.30189e-06
4.17899e-06
5.06225e-06
3.80072e-06
-8.75641e-06
-2.91473e-06
-3.24859e-06
-5.90395e-06
6.30384e-06
2.28904e-07
-8.16181e-06
-2.86883e-06
-4.63953e-06
5.18237e-06
-4.68291e-07
-5.31592e-06
-9.89886e-06
2.02731e-07
9.08104e-06
-7.97207e-06
1.20053e-07
5.47661e-06
-1.91814e-07
8.9604e-06
-1.11062e-05
-8.36871e-07
1.44252e-06
-4.11152e-06
-5.92003e-06
1.31736e-06
5.16549e-06
-1.07083e-05
-1.10044e-05
2.89426e-06
8.51618e-06
-1.14955e-05
-2.81145e-06
4.30281e-07
-3.79948e-06
-5.92816e-06
2.08412e-06
3.7618e-06
-1.67289e-08
3.35467e-08
-2.62354e-08
-1.12851e-08
-1.77025e-08
2.58804e-08
-3.12553e-08
-5.10837e-08
3.99031e-08
4.10802e-08
-1.91205e-08
3.30997e-08
-2.81488e-08
-7.7337e-09
-2.26901e-08
2.48242e-08
-3.12961e-08
-5.13419e-08
3.97575e-08
3.98593e-08
-2.74761e-08
5.00821e-08
-3.01931e-08
5.92344e-09
-2.28305e-08
1.84794e-08
-3.63594e-08
-4.44682e-08
3.59064e-08
3.90252e-08
-2.11503e-08
4.79527e-08
-5.22906e-08
8.48927e-09
-1.52094e-08
2.16598e-08
-3.76956e-08
-3.75354e-08
2.56789e-08
3.66465e-08
-1.58115e-08
5.64917e-08
-4.3581e-08
1.72893e-08
-1.47422e-08
5.78203e-09
-2.54639e-08
-3.39873e-08
2.58951e-08
2.97196e-08
-2.56419e-08
7.08529e-08
-6.29868e-08
3.26879e-08
-1.01326e-08
1.0008e-08
-2.87788e-08
-4.09216e-08
1.65765e-08
6.79092e-08
-4.68165e-08
9.28263e-08
-5.13357e-08
1.3739e-08
-2.59638e-08
7.25717e-09
-2.50114e-08
-4.99526e-08
1.70912e-08
5.2983e-08
-7.03868e-08
8.51755e-08
-4.42129e-08
-7.72925e-09
-5.19572e-08
7.01529e-08
-1.17191e-08
-6.41133e-08
8.59566e-09
6.33651e-08
-5.11703e-08
7.26013e-08
-4.95567e-08
-2.0326e-08
-6.0384e-08
7.84993e-08
-5.24324e-10
-5.7931e-08
-5.80627e-09
3.98486e-08
2.85638e-08
3.22572e-08
-1.24423e-07
1.59425e-08
-4.94456e-08
1.04736e-07
-1.00753e-08
-3.93947e-08
-1.88812e-08
2.87038e-08
6.9727e-09
1.38997e-08
-8.56494e-08
-2.20453e-08
-9.62602e-08
4.95446e-08
4.1742e-08
-1.8392e-08
-6.61869e-08
9.3662e-08
3.43938e-08
-8.34493e-08
-4.4401e-08
-4.63878e-08
-1.91183e-07
1.78158e-08
1.33322e-07
-3.13385e-08
-5.06237e-08
7.01847e-08
1.64058e-08
-1.2431e-07
-2.91558e-08
7.57906e-09
-2.05387e-07
1.50332e-08
1.18293e-07
-4.80745e-08
1.53736e-08
8.32131e-08
-2.99723e-08
-1.67167e-08
-2.73721e-08
-4.90866e-08
-1.66205e-07
-5.08245e-08
1.40643e-07
-9.07494e-08
2.359e-08
9.63101e-08
1.61705e-08
-5.21466e-08
-2.10857e-07
-1.85746e-08
-5.89838e-08
-2.06944e-07
1.06149e-07
-4.47696e-09
-4.60507e-08
2.28483e-08
8.17569e-08
8.14962e-09
-1.66478e-07
7.65925e-09
-9.89891e-08
-2.34086e-07
8.98597e-08
8.48867e-08
3.03974e-08
-7.37745e-08
-5.80479e-08
-1.24851e-08
-1.67468e-07
4.03664e-08
-9.67093e-08
-1.85634e-07
1.15181e-07
-2.04634e-08
-1.1201e-08
3.53902e-08
-3.82606e-08
6.1464e-08
1.78478e-08
-1.47083e-07
5.2819e-08
-1.41192e-08
-6.32809e-08
-2.56457e-08
1.42767e-07
-3.23537e-09
5.31542e-08
1.24501e-08
-1.02577e-07
-4.27394e-08
9.71517e-08
-5.47089e-08
-9.4292e-11
8.2381e-08
-1.31682e-08
7.99392e-08
-5.75695e-10
1.19077e-08
1.96107e-08
-7.22744e-08
1.7876e-08
-3.02668e-08
-8.5488e-08
2.61234e-07
-4.41726e-08
1.63348e-07
-1.21879e-08
5.91552e-08
-4.74534e-08
-2.3858e-08
-1.60508e-08
-1.07065e-07
3.52817e-08
1.43242e-07
-9.32055e-08
2.68829e-07
1.81938e-07
4.48764e-08
3.39095e-08
2.44212e-08
-2.37068e-09
-2.27058e-07
1.50492e-07
2.85869e-07
2.86366e-08
2.23908e-07
2.11485e-07
7.92651e-09
1.31297e-08
-5.11477e-09
-3.12371e-07
7.11529e-08
1.38106e-07
-7.47555e-08
-7.25175e-09
3.50452e-07
3.19268e-07
1.23715e-07
-1.98665e-07
-1.59366e-07
1.25842e-07
-2.64607e-07
-1.09062e-07
4.88779e-07
-2.51637e-07
8.29528e-08
1.66561e-07
-4.2311e-08
-7.04185e-08
6.36754e-08
-1.42999e-07
-2.14895e-08
-2.43818e-07
2.68413e-07
-7.48806e-08
3.79999e-07
9.16303e-08
6.02253e-09
6.68388e-08
1.18583e-07
1.8109e-10
-2.08778e-07
3.75638e-07
2.63979e-07
-2.65539e-07
4.77119e-07
-2.18589e-07
-2.66283e-07
3.52592e-07
4.23112e-07
-4.08033e-07
3.573e-07
4.13674e-07
-3.43483e-07
4.00054e-07
2.7419e-07
1.68085e-07
3.7683e-07
-3.79093e-07
4.44468e-07
-1.03146e-07
2.10458e-07
-5.61912e-08
6.26187e-08
4.9853e-07
-5.97777e-07
-1.18153e-08
2.2773e-08
-4.93429e-08
3.14648e-07
-1.5977e-07
1.36057e-07
9.33432e-08
4.61815e-08
6.98229e-08
1.24218e-07
-1.62979e-07
-1.64689e-09
-1.09439e-08
3.03083e-07
1.58291e-07
4.75016e-08
4.67412e-08
1.39434e-07
-2.24549e-07
4.34309e-07
1.05756e-07
-1.73793e-07
1.56102e-07
6.20223e-07
1.35026e-08
2.52802e-07
9.25099e-08
-8.09848e-08
-1.86975e-07
1.74439e-07
3.16735e-07
3.27942e-07
9.49776e-08
3.2929e-07
-7.83739e-09
1.88252e-07
7.85574e-08
3.97939e-07
3.20244e-07
-9.67205e-08
-1.98282e-07
-4.97976e-07
1.26986e-07
1.02362e-06
-2.88859e-08
4.8469e-07
1.73611e-07
-8.09518e-07
-8.31009e-09
5.17291e-08
1.93459e-07
8.50747e-07
-4.03309e-07
1.42102e-06
5.74472e-07
9.81862e-07
-5.69229e-08
-3.8616e-07
-4.32284e-07
-5.65738e-07
-1.32946e-06
1.41062e-06
5.8044e-07
3.09374e-07
7.22879e-07
6.75591e-07
-8.12453e-07
3.52615e-08
2.00143e-07
-1.65431e-07
1.03156e-06
-4.02361e-07
6.361e-07
7.26422e-07
-3.9248e-07
1.08957e-06
1.95081e-07
-5.93409e-07
-8.63093e-07
3.82505e-07
1.01771e-06
4.84145e-08
-5.44029e-07
-9.00277e-07
6.52214e-07
1.69062e-06
-1.30407e-06
8.0586e-07
-8.8908e-08
-3.53914e-07
1.78954e-06
-1.20509e-06
9.74907e-07
6.10049e-09
-7.2207e-07
1.61947e-06
4.29124e-07
-9.81488e-07
-1.2891e-06
9.6614e-07
-8.41489e-07
1.8781e-07
1.9025e-06
-3.09731e-06
-9.39139e-07
1.74628e-06
-1.32261e-06
6.9064e-07
-2.18926e-07
-1.72548e-07
-2.38521e-07
-1.24446e-06
1.77811e-06
-1.799e-06
-1.62519e-06
1.09294e-06
2.01766e-06
1.07045e-06
-2.27441e-06
1.22278e-06
-2.80497e-06
2.04755e-06
3.7184e-06
-1.42747e-06
-1.42559e-06
1.99233e-06
3.18389e-06
-1.87218e-06
1.53518e-06
2.41391e-06
1.05607e-08
3.72469e-06
-2.25357e-06
1.41584e-06
1.77623e-06
-2.48979e-06
-2.05466e-06
8.56448e-07
2.93655e-06
-4.15841e-06
-2.57847e-06
-6.33454e-07
2.41077e-06
4.0987e-06
-4.21155e-06
5.20858e-07
2.09957e-06
-2.39936e-06
3.14156e-06
8.13879e-07
-2.26859e-08
2.85084e-06
-3.13459e-06
-3.46022e-06
-1.25093e-06
2.14746e-06
-4.89252e-06
-5.14508e-08
3.19193e-06
-5.62277e-07
-3.31291e-06
-5.55157e-06
5.91198e-07
6.28933e-06
-7.22135e-06
-1.09432e-06
3.49549e-06
-1.77627e-06
3.15882e-06
2.70319e-06
1.16292e-05
8.16442e-07
-7.64263e-06
1.06353e-05
-6.60005e-06
-9.06296e-06
2.57797e-06
1.15969e-05
-4.27009e-06
-5.22821e-06
-2.82909e-06
-5.15708e-06
4.00231e-07
6.30542e-06
-7.98254e-06
9.92148e-07
1.05573e-05
-6.11746e-06
1.2307e-07
9.95524e-07
3.91736e-06
7.3488e-06
-9.35944e-06
3.12915e-06
5.46471e-06
-6.81583e-06
5.92422e-06
1.52787e-06
-7.57312e-06
-6.89405e-06
-6.32945e-06
5.04333e-06
-5.38524e-07
-3.78274e-06
-1.11337e-06
4.332e-06
7.69296e-06
-7.56836e-06
1.63213e-06
2.33134e-06
4.01863e-06
-5.23582e-06
5.11564e-06
5.70491e-06
-1.08258e-05
1.55827e-08
4.55513e-06
4.70097e-06
-8.20961e-06
2.96468e-06
-5.31641e-08
1.24765e-08
-3.07145e-08
-8.21307e-09
1.1784e-08
6.95757e-09
2.73602e-09
-1.4783e-08
5.30241e-08
6.13622e-09
-5.63993e-08
2.27001e-08
-2.5446e-08
-7.10796e-09
1.10679e-08
8.6161e-09
3.57703e-09
-1.58006e-08
5.38394e-08
1.10586e-08
-5.79013e-08
1.75125e-08
-2.98997e-08
7.37348e-09
6.85855e-09
4.74053e-09
-3.61645e-09
-8.80077e-09
4.29467e-08
8.22454e-09
-3.85901e-08
2.19195e-08
-3.0042e-08
2.40297e-08
2.20626e-08
5.51168e-09
9.22245e-09
9.81333e-09
1.64011e-08
6.98307e-09
-3.03178e-08
2.77214e-08
-4.80394e-08
4.54973e-08
3.27907e-08
-1.177e-08
1.43387e-08
1.08211e-08
4.89226e-09
3.38097e-09
-4.04017e-08
2.52322e-08
-3.61587e-08
4.68375e-08
2.38839e-08
-8.17531e-09
1.37908e-08
1.42701e-08
3.16897e-08
-2.9104e-08
-3.81077e-08
3.13751e-08
-4.73152e-08
4.51895e-08
4.16283e-08
1.45324e-08
-4.08967e-08
1.62752e-08
3.23327e-08
-1.55454e-08
-2.35622e-08
5.45546e-08
-4.45308e-08
3.99502e-08
6.64669e-08
6.04479e-08
-9.7525e-08
-5.38759e-09
4.88589e-08
8.16832e-10
-5.56642e-08
6.07082e-08
-4.41783e-08
2.38974e-09
7.52108e-08
7.65365e-08
-1.33217e-07
-3.51273e-08
4.78362e-08
1.95307e-08
-1.45692e-08
1.78172e-08
-8.1858e-08
6.61653e-08
6.27102e-08
7.05153e-08
-1.45568e-07
-6.01647e-08
-1.20617e-08
5.9012e-08
-4.5377e-08
7.7605e-09
-2.59976e-08
4.14746e-08
1.55451e-08
5.35209e-08
-7.88484e-08
-4.65742e-08
6.08767e-09
6.12462e-08
-8.91117e-08
-2.93766e-08
-1.53694e-09
-9.37623e-09
1.90284e-08
8.41024e-08
-4.52483e-08
-6.6651e-08
-3.4245e-08
3.71172e-08
-5.87648e-08
-1.23036e-07
1.22909e-07
5.97567e-08
-8.71575e-08
1.61222e-07
2.33361e-08
-5.03076e-08
-4.68327e-08
6.22737e-08
1.43049e-08
-1.89967e-07
1.16117e-07
3.4955e-08
-5.51429e-08
1.04131e-07
3.88391e-09
-1.61148e-08
-5.67219e-08
6.06906e-08
5.60517e-08
-2.20269e-07
1.90173e-07
6.45046e-08
-7.8729e-08
9.92788e-08
2.06239e-08
1.0657e-08
-1.57357e-07
7.68234e-08
7.12973e-08
-2.05075e-07
1.66137e-07
8.78177e-08
-1.33987e-07
8.9094e-08
4.90228e-10
5.22797e-08
-1.94725e-07
3.015e-08
1.01031e-07
-3.05482e-08
1.19158e-07
3.46762e-08
3.56407e-08
5.15923e-08
-4.83419e-08
8.14395e-08
-1.47893e-08
-1.75372e-07
3.39766e-09
9.00638e-09
8.72116e-08
-1.0005e-07
1.09437e-07
-1.22172e-08
-1.60172e-07
9.15325e-08
-2.50909e-08
-6.22748e-08
1.10995e-07
-1.67743e-09
8.34035e-08
1.3299e-07
5.69219e-08
-2.0682e-07
-5.2257e-08
1.31799e-07
-6.97747e-09
-1.33136e-07
7.25178e-08
-6.84942e-08
9.24272e-08
2.01927e-08
-4.11507e-08
-3.11042e-08
-7.61537e-08
2.0298e-07
-1.09024e-07
-8.42885e-08
2.6234e-07
3.24623e-08
9.75012e-08
8.51736e-08
4.12748e-08
4.90153e-08
1.52785e-08
1.93921e-07
1.11635e-07
-1.89219e-07
1.59692e-07
-9.32978e-08
1.38701e-07
3.04281e-08
-1.15706e-07
6.69088e-08
2.66402e-08
1.77711e-07
5.26206e-08
-4.24937e-08
2.19085e-07
-2.17678e-07
4.2384e-07
1.68367e-07
-2.81539e-07
3.24721e-07
1.53044e-07
2.26573e-07
1.63578e-07
2.95343e-08
1.26893e-07
-6.27631e-08
9.56709e-08
2.093e-08
-8.37511e-08
4.58484e-08
7.2115e-08
3.37421e-07
9.84042e-09
1.75024e-08
4.79203e-07
6.29275e-08
-9.10191e-10
1.36823e-07
3.38981e-09
-1.43923e-07
-1.14034e-07
5.65825e-07
1.93324e-08
8.57434e-08
-1.87266e-08
1.08553e-08
5.3323e-08
1.05453e-07
-1.00884e-07
-1.00547e-07
3.43432e-07
4.81393e-07
-1.02079e-07
-9.37108e-08
-8.8106e-08
2.27936e-07
1.85518e-07
1.16736e-07
-7.58851e-09
-5.29786e-07
3.17672e-07
2.54857e-08
1.88408e-07
-2.03963e-08
-5.42763e-07
3.54509e-07
4.00526e-07
-2.29695e-08
-1.75417e-07
-2.56869e-07
4.40359e-07
-5.74277e-07
2.73567e-07
1.63727e-07
3.18965e-07
4.54064e-07
1.09029e-07
-8.62646e-08
3.99713e-07
-9.10858e-07
1.54789e-07
7.5335e-08
-4.21308e-07
5.76742e-08
-2.69889e-07
6.24783e-07
4.82307e-07
-5.18807e-07
5.09977e-07
1.0218e-07
-6.68293e-07
2.10393e-07
2.10415e-07
-6.38987e-07
3.00676e-07
4.95099e-07
9.82689e-08
-7.70131e-08
3.12501e-07
8.96132e-08
-5.35273e-07
1.6285e-07
2.16102e-07
-4.22901e-07
4.88305e-07
1.37364e-07
7.82545e-07
7.06594e-07
2.45369e-07
-6.57987e-07
-9.91096e-07
-3.53144e-07
-1.68253e-07
-1.56302e-07
5.69812e-07
5.48337e-07
-5.35607e-07
2.92832e-07
8.10454e-07
-3.23146e-07
-3.06751e-07
3.20898e-07
1.80164e-07
-3.68538e-07
-4.12347e-07
1.9592e-06
-9.04366e-07
-4.41047e-07
1.81122e-06
-2.55638e-07
-1.58336e-07
7.56051e-07
-6.19562e-07
2.10847e-08
2.88753e-07
9.70961e-08
-9.52731e-07
9.66349e-08
1.34551e-06
-4.86163e-07
-1.14114e-07
7.29051e-07
-1.02495e-06
7.73568e-08
8.72792e-07
2.99764e-07
-3.77085e-07
-7.24536e-07
4.88223e-07
9.72052e-07
-1.11861e-06
8.28758e-07
-4.06638e-07
-5.03377e-07
1.82835e-06
-1.12557e-06
4.62302e-07
-5.09416e-07
-8.32997e-07
7.5958e-07
-6.45972e-07
-1.45103e-07
-1.47293e-06
8.19046e-08
1.30749e-06
2.58442e-07
-6.95583e-07
-2.46361e-06
-1.15003e-07
1.70164e-06
-1.42052e-06
6.34786e-07
8.2652e-07
-7.1227e-07
2.05643e-06
-6.81633e-07
1.17406e-06
-2.10718e-07
-1.68905e-06
-1.23713e-06
3.82582e-07
1.84301e-06
-2.34868e-06
6.49429e-07
-1.84681e-06
1.72188e-07
1.77944e-06
-2.85129e-06
-1.74919e-06
3.22209e-07
-1.17512e-06
1.136e-06
-2.41269e-07
-6.76944e-07
-8.99899e-08
-3.09487e-06
-8.93694e-07
2.51e-06
3.67085e-07
-2.10673e-06
1.41656e-06
1.15881e-06
-1.63972e-06
1.81799e-06
-3.26172e-06
1.66778e-06
1.21572e-06
-1.25159e-06
-4.53179e-06
3.94303e-07
2.01967e-06
-2.23665e-06
1.60947e-06
9.70702e-07
-9.50616e-07
1.13172e-06
-1.86661e-06
3.62041e-06
5.03036e-07
-3.33986e-06
-4.82135e-06
-2.37725e-07
3.22663e-06
1.0193e-06
2.92862e-06
-3.70211e-06
1.76898e-06
7.1696e-06
-1.01551e-05
-8.99257e-08
4.31526e-06
-2.72354e-06
-1.39056e-06
1.78042e-06
2.60329e-06
3.21109e-06
-3.72002e-06
5.69676e-06
1.58886e-06
-5.02841e-06
-1.29845e-06
4.72968e-06
4.29133e-06
-6.50624e-06
4.44106e-06
3.67415e-06
-8.01888e-06
6.8206e-06
-7.30198e-07
-1.00658e-05
-1.79661e-06
6.65272e-06
8.17499e-07
-1.03841e-05
1.86742e-06
9.19655e-06
-4.41812e-06
5.58648e-06
3.41217e-06
-4.40791e-06
7.09875e-06
3.96482e-06
-4.84875e-06
-7.12687e-06
-4.88788e-06
7.63953e-06
7.26969e-07
-2.54194e-06
-5.91994e-07
2.42528e-06
6.56313e-06
-8.42676e-06
5.63394e-07
-1.08339e-07
1.0668e-06
9.25336e-06
-8.24285e-06
5.99228e-06
1.57199e-05
-2.07e-06
-4.55007e-06
3.6161e-06
7.11341e-06
-9.30738e-06
1.13105e-06
1.14117e-05
-6.4434e-07
-1.66742e-06
2.28072e-06
1.39473e-06
2.08567e-06
-1.1802e-06
-6.10642e-07
2.11132e-07
2.8142e-08
5.17899e-08
3.32269e-09
-4.24749e-08
8.30858e-08
-5.78134e-09
5.80145e-08
5.30237e-08
-2.69712e-08
-3.90901e-08
3.2363e-08
5.34172e-08
2.99675e-09
-4.55614e-08
8.79895e-08
-4.99372e-09
6.58823e-08
5.46134e-08
-3.22703e-08
-3.63389e-08
5.2986e-08
4.93038e-08
-3.58917e-09
-4.17845e-08
7.61693e-08
-3.77626e-09
7.57736e-08
5.34876e-08
-4.3901e-08
-4.45603e-08
6.38454e-08
3.95441e-08
-1.81551e-08
-1.03656e-08
7.10078e-08
-1.68723e-08
9.32162e-08
5.11596e-08
-5.73648e-08
-3.91335e-08
7.34685e-08
2.41882e-08
-4.14604e-08
3.83984e-09
4.9087e-08
-3.11267e-08
1.18654e-07
5.63115e-08
-5.77585e-08
-2.73596e-08
6.68481e-08
-1.01185e-11
-3.99721e-08
1.78364e-08
2.67069e-08
-2.15948e-08
1.14811e-07
5.36815e-08
-3.85419e-08
-7.77003e-08
6.17644e-08
-9.22685e-09
-4.19025e-08
2.17762e-08
6.5025e-10
-6.15854e-08
1.27267e-07
6.41812e-08
-1.92723e-08
-8.85405e-08
6.08576e-08
-6.04035e-09
-5.4435e-08
4.74952e-08
-9.84898e-10
-5.22644e-08
1.00285e-07
4.76373e-08
-1.05315e-09
-6.9668e-08
4.71529e-08
1.6471e-09
-5.58259e-08
6.59208e-08
-1.69922e-08
-3.59588e-08
1.07133e-07
3.77515e-08
1.55657e-08
-6.16061e-08
-5.91908e-09
-5.66652e-08
3.67718e-08
4.56386e-08
-3.9432e-08
-3.93942e-08
1.39681e-07
1.4711e-08
5.59051e-08
1.40852e-08
-9.02075e-09
-8.7754e-08
8.1472e-08
7.15983e-09
-1.37056e-08
1.18544e-08
1.02442e-07
2.88834e-08
4.42367e-08
1.72621e-09
1.65085e-08
-8.03978e-08
6.72435e-08
1.32972e-08
4.97151e-08
1.09108e-07
9.80053e-08
-1.39932e-08
4.75522e-08
4.24547e-08
2.56159e-08
-8.35275e-08
1.14073e-07
-3.34392e-08
4.87038e-09
8.74962e-08
5.88794e-08
4.02561e-08
8.57339e-09
5.10519e-08
5.869e-08
-1.06379e-07
1.58646e-07
-3.24112e-08
5.93713e-09
1.24764e-07
5.91301e-08
6.48652e-08
-3.60312e-08
3.35468e-08
5.7293e-08
-1.95766e-07
2.15593e-07
-3.68788e-08
2.55866e-08
1.31074e-07
1.41892e-07
6.7094e-08
-1.46248e-07
1.66778e-07
2.81184e-08
-1.92327e-07
2.0087e-07
-6.43119e-08
-4.09376e-08
1.67595e-07
1.79399e-07
1.83014e-08
-1.73188e-07
1.82135e-07
3.89267e-08
-4.27463e-08
7.69356e-08
-1.54359e-07
1.27476e-07
8.54868e-08
1.30354e-07
4.06553e-08
-8.73493e-08
8.39466e-08
2.38126e-08
6.65125e-08
-1.12764e-07
3.83243e-08
1.08411e-07
-7.48452e-08
1.43657e-07
3.89424e-08
-4.48844e-08
3.03906e-08
3.43163e-08
-3.42115e-08
-4.59178e-08
-6.99406e-08
-4.16338e-08
1.68222e-07
1.91958e-08
-3.92968e-09
-1.02465e-07
-9.80856e-08
-7.08502e-08
6.16384e-08
4.96428e-08
-2.07217e-07
9.40838e-08
9.11918e-08
9.73848e-08
-1.75469e-07
7.77342e-08
2.63541e-09
7.29453e-08
-5.91708e-08
-1.09364e-07
-1.79681e-07
-1.86663e-11
2.84787e-08
-2.13381e-09
-5.46987e-08
2.8676e-08
-3.46886e-07
2.46677e-08
-1.30963e-07
3.11616e-08
-8.76138e-08
-4.28765e-08
9.31356e-08
1.89072e-07
-7.96877e-08
1.56125e-08
-1.08311e-07
-5.91405e-08
-6.07781e-08
1.0009e-07
-1.03739e-07
-6.00822e-09
1.1331e-07
5.63669e-08
1.54456e-07
-6.00036e-08
-3.24534e-07
-4.9619e-08
-1.99203e-07
3.70569e-07
-9.23697e-08
-1.20781e-07
3.91604e-07
3.1914e-07
-2.01094e-07
2.9236e-07
3.07157e-08
2.21833e-07
-2.84104e-07
-7.72513e-08
3.70684e-07
1.50717e-07
5.59086e-09
2.51549e-07
1.16462e-07
-1.95796e-07
-4.43896e-07
-1.19355e-08
5.10939e-08
1.20751e-08
1.52448e-07
-1.26289e-07
6.30733e-07
1.26463e-07
-6.16194e-08
4.88915e-07
-5.16461e-07
-6.74246e-08
6.93827e-08
-1.8605e-07
5.97482e-08
5.18515e-08
4.04385e-08
1.73716e-07
-2.86752e-08
5.024e-08
-2.54223e-07
-5.75777e-08
5.8757e-08
-6.36465e-08
2.54835e-08
6.52408e-08
4.69865e-09
3.8395e-07
6.70752e-10
2.61216e-08
-6.21272e-08
-1.46086e-07
2.14955e-07
1.95323e-09
-1.09004e-08
-8.18908e-09
1.575e-07
2.52046e-07
-4.35981e-07
-2.4498e-08
-2.76116e-07
-1.45582e-07
2.31744e-07
-4.26017e-09
6.42432e-08
-7.62501e-08
7.04778e-07
1.05065e-06
-7.60548e-07
9.33297e-08
-7.94834e-08
2.37445e-07
-1.21834e-08
-1.67693e-07
5.66704e-07
-8.44179e-07
6.61274e-07
4.69464e-07
-4.82464e-07
-1.09433e-07
-3.24304e-07
5.17507e-07
5.53305e-07
-8.61516e-07
4.43461e-07
7.28614e-07
7.33813e-07
7.15269e-09
-8.05e-08
3.90269e-07
-1.38608e-06
-1.04295e-09
1.73635e-07
-4.48036e-08
5.99137e-08
1.01243e-07
7.10586e-07
7.42769e-07
-1.30659e-06
5.57966e-07
-5.39675e-08
-3.88523e-07
8.04758e-07
4.66435e-07
-1.37226e-06
9.50346e-07
-4.88087e-07
8.6436e-07
7.17568e-07
5.35063e-07
-8.74277e-07
-2.41914e-07
5.35194e-07
9.87856e-07
-2.13801e-06
1.12067e-06
1.31453e-06
-1.67623e-06
7.54105e-07
6.79327e-07
-4.27357e-07
8.10999e-07
-7.8635e-07
3.16213e-07
1.48824e-06
-1.09441e-07
9.39818e-07
-4.34621e-07
-2.91205e-07
-1.04026e-06
-2.33766e-07
8.91542e-07
1.27986e-08
2.07093e-08