/*--------------------------------*- C++ -*----------------------------------*\
| =========                 |                                                 |
| \\      /  F ield         | OpenFOAM: The Open Source CFD Toolbox           |
|  \\    /   O peration     | Version:  v1806                                 |
|   \\  /    A nd           | Web:      www.OpenFOAM.com                      |
|    \\/     M anipulation  |                                                 |
\*---------------------------------------------------------------------------*/
FoamFile
{
    version     2.0;
    format      ascii;
    class       surfaceScalarField;
    location    "350000";
    object      phi;
}
// * * * * * * * * * * * * * * * * * * * * * * * * * * * * * * * * * * * * * //

dimensions      [0 3 -1 0 0 0 0];
oriented        oriented;


internalField   nonuniform List<scalar> 
13900
(
0.00882086
-4.43227e-12
-0.00424991
0.00882086
6.76667e-12
-0.00424991
0.00882086
4.41287e-11
-0.00424991
0.00882086
4.04968e-11
-0.00424991
0.00882086
-2.57175e-11
-0.00424991
0.00882086
-8.62627e-12
-0.00424991
0.00882086
-9.99592e-13
-0.00424991
0.00882086
-1.84956e-11
-0.00424991
0.00882086
-3.26241e-11
-0.00424991
-1.03535e-11
-0.00424991
0.0124216
-2.70752e-12
-0.00577415
0.0124216
5.64642e-12
-0.00577415
0.0124216
6.88848e-11
-0.00577415
0.0124216
3.48944e-11
-0.00577415
0.0124216
-5.33523e-11
-0.00577415
0.0124216
-1.22643e-11
-0.00577415
0.0124216
1.95536e-11
-0.00577415
0.0124216
-1.78025e-11
-0.00577415
0.0124216
-5.76969e-11
-0.00577415
-1.32417e-11
-0.00577415
0.0149797
-3.27949e-11
-0.00675267
0.0149797
-5.41681e-12
-0.00675267
0.0149797
7.24626e-11
-0.00675267
0.0149797
-2.6532e-11
-0.00675267
0.0149797
-5.45444e-11
-0.00675267
0.0149797
1.13941e-11
-0.00675267
0.0149797
4.88563e-11
-0.00675267
0.0149797
2.8061e-12
-0.00675267
0.0149797
-3.74912e-11
-0.00675267
2.51585e-12
-0.00675267
0.0172078
-8.34572e-11
-0.00753297
0.0172078
-1.18495e-11
-0.00753297
0.0172078
5.59958e-11
-0.00753297
0.0172078
-5.96649e-11
-0.00753297
0.0172078
-6.21353e-11
-0.00753297
0.0172078
7.85012e-12
-0.00753297
0.0172078
3.00294e-11
-0.00753297
0.0172078
4.71489e-11
-0.00753297
0.0172078
-9.41729e-12
-0.00753297
-1.18055e-11
-0.00753297
0.019327
-1.46236e-10
-0.00821513
0.019327
-4.25671e-11
-0.00821513
0.019327
-3.67535e-11
-0.00821513
0.019327
-7.26339e-11
-0.00821513
0.019327
-3.91681e-11
-0.00821513
0.019327
1.68359e-12
-0.00821513
0.019327
-7.91267e-12
-0.00821513
0.019327
3.67386e-11
-0.00821513
0.019327
-3.59454e-11
-0.00821513
1.80023e-11
-0.00821513
0.0214331
-1.64534e-10
-0.00883732
0.0214331
-5.93002e-11
-0.00883732
0.0214331
-4.77266e-11
-0.00883732
0.0214331
-9.78849e-11
-0.00883732
0.0214331
-5.04801e-11
-0.00883732
0.0214331
-1.69542e-11
-0.00883732
0.0214331
-1.94994e-11
-0.00883732
0.0214331
2.53492e-11
-0.00883732
0.0214331
1.06825e-11
-0.00883732
-1.7423e-11
-0.00883732
0.0235768
-1.54291e-10
-0.00941543
0.0235768
-2.04755e-11
-0.00941543
0.0235768
-2.25978e-11
-0.00941543
0.0235768
-1.191e-10
-0.00941543
0.0235768
-6.8263e-11
-0.00941543
0.0235768
3.2723e-11
-0.00941543
0.0235768
-2.99915e-11
-0.00941543
0.0235768
8.66471e-13
-0.00941543
0.0235768
4.05267e-11
-0.00941543
-1.52517e-11
-0.00941543
0.0257889
-7.71262e-11
-0.00995533
0.0257889
-2.22644e-11
-0.00995533
0.0257889
-5.11632e-11
-0.00995533
0.0257889
-1.07081e-10
-0.00995533
0.0257889
-3.48549e-11
-0.00995533
0.0257889
1.68775e-11
-0.00995533
0.0257889
2.82917e-11
-0.00995533
0.0257889
4.75218e-11
-0.00995533
0.0257889
4.57788e-11
-0.00995533
1.53739e-11
-0.00995533
0.0280903
5.65015e-11
-0.0104575
0.0280903
9.71829e-12
-0.0104575
0.0280903
-7.62967e-11
-0.0104575
0.0280903
-7.91593e-11
-0.0104575
0.0280903
-4.90463e-11
-0.0104575
0.0280903
-4.07608e-11
-0.0104575
0.0280903
4.54099e-11
-0.0104575
0.0280903
6.33715e-11
-0.0104575
0.0280903
9.39589e-11
-0.0104575
3.18044e-11
-0.0104575
0.030496
8.56405e-11
-0.0109191
0.030496
1.15195e-10
-0.0109191
0.030496
-2.68246e-11
-0.0109191
0.030496
-1.63416e-10
-0.0109191
0.030496
-1.73808e-10
-0.0109191
0.030496
-4.44367e-11
-0.0109191
0.030496
4.32671e-11
-0.0109191
0.030496
1.0497e-10
-0.0109191
0.030496
5.76752e-11
-0.0109191
8.47043e-11
-0.0109191
0.033017
8.53544e-11
-0.011335
0.033017
3.94562e-11
-0.011335
0.033017
3.83393e-11
-0.011335
0.033017
-9.74439e-11
-0.011335
0.033017
-1.81329e-10
-0.011335
0.033017
5.60843e-12
-0.011335
0.033017
-1.87528e-14
-0.011335
0.033017
2.52992e-11
-0.011335
0.033017
6.97915e-11
-0.011335
9.9497e-11
-0.011335
0.0356619
-4.13996e-12
-0.0116982
0.0356619
-6.27938e-11
-0.0116982
0.0356619
1.00568e-10
-0.0116982
0.0356619
-5.63113e-11
-0.0116982
0.0356619
-9.82371e-11
-0.0116982
0.0356619
1.25674e-10
-0.0116982
0.0356619
9.93919e-13
-0.0116982
0.0356619
-9.77745e-11
-0.0116982
0.0356619
6.13659e-11
-0.0116982
1.78505e-10
-0.0116982
0.0384364
8.84647e-12
-0.0120002
0.0384364
-6.73628e-12
-0.0120002
0.0384364
-8.76775e-12
-0.0120002
0.0384364
2.08543e-11
-0.0120002
0.0384364
3.91733e-12
-0.0120002
0.0384364
8.03123e-11
-0.0120002
0.0384364
-4.05175e-11
-0.0120002
0.0384364
-5.78975e-11
-0.0120002
0.0384364
-7.32038e-11
-0.0120002
4.25347e-11
-0.0120002
0.0413444
7.84387e-11
-0.0122314
0.0413444
-1.59194e-10
-0.0122314
0.0413444
-7.79667e-12
-0.0122314
0.0413444
5.44166e-11
-0.0122314
0.0413444
7.16916e-11
-0.0122314
0.0413444
-3.3566e-12
-0.0122314
0.0413444
-1.15386e-10
-0.0122314
0.0413444
-3.53013e-11
-0.0122314
0.0413444
-2.88818e-10
-0.0122314
3.66501e-11
-0.0122314
0.0443871
-8.66574e-11
-0.0123814
0.0443871
-4.59566e-11
-0.0123814
0.0443871
-5.16868e-11
-0.0123814
0.0443871
-2.27776e-11
-0.0123814
0.0443871
-5.73579e-11
-0.0123814
0.0443871
-2.02731e-10
-0.0123814
0.0443871
-1.05627e-10
-0.0123814
0.0443871
-4.08208e-11
-0.0123814
0.0443871
-1.17787e-10
-0.0123814
-6.92622e-12
-0.0123814
0.0475636
-2.57178e-10
-0.0124392
0.0475636
-1.14391e-10
-0.0124392
0.0475636
-2.6027e-10
-0.0124392
0.0475636
-2.44767e-11
-0.0124392
0.0475636
-3.46459e-12
-0.0124392
0.0475636
-1.46504e-10
-0.0124392
0.0475636
1.31387e-11
-0.0124392
0.0475636
-1.77465e-10
-0.0124392
0.0475636
-1.41606e-10
-0.0124392
-7.15631e-11
-0.0124392
0.05087
-2.11939e-10
-0.0123932
0.05087
-2.00426e-11
-0.0123932
0.05087
-9.37807e-11
-0.0123932
0.05087
-1.80843e-10
-0.0123932
0.05087
8.79804e-11
-0.0123932
0.05087
1.2597e-10
-0.0123932
0.05087
-1.21227e-10
-0.0123932
0.05087
-1.09046e-10
-0.0123932
0.05087
5.54425e-11
-0.0123932
-1.95603e-10
-0.0123932
0.0542997
-4.68405e-11
-0.0122326
0.0542997
-6.79467e-11
-0.0122326
0.0542997
4.51946e-11
-0.0122326
0.0542997
-8.18351e-11
-0.0122326
0.0542997
-9.03027e-12
-0.0122326
0.0542997
-3.07418e-11
-0.0122326
0.0542997
-1.1879e-10
-0.0122326
0.0542997
7.36193e-11
-0.0122326
0.0542997
-1.39703e-10
-0.0122326
-1.20821e-10
-0.0122326
0.057843
4.76948e-11
-0.011947
0.057843
1.69224e-10
-0.011947
0.057843
-1.17734e-11
-0.011947
0.057843
4.37051e-11
-0.011947
0.057843
2.09382e-10
-0.011947
0.057843
-1.46527e-10
-0.011947
0.057843
-2.71552e-11
-0.011947
0.057843
1.50328e-10
-0.011947
0.057843
-8.97702e-11
-0.011947
7.54528e-11
-0.011947
0.061487
3.04131e-10
-0.0115278
0.061487
6.12689e-11
-0.0115278
0.061487
1.39176e-10
-0.0115278
0.061487
3.1894e-10
-0.0115278
0.061487
4.66314e-11
-0.0115278
0.061487
-8.82308e-12
-0.0115278
0.061487
2.69561e-10
-0.0115278
0.061487
-1.4914e-11
-0.0115278
0.061487
-7.86782e-12
-0.0115278
2.60541e-10
-0.0115278
0.0652153
3.89206e-10
-0.0109686
0.0652153
2.17017e-10
-0.0109686
0.0652153
2.4797e-10
-0.0109686
0.0652153
3.24369e-10
-0.0109686
0.0652153
8.92411e-11
-0.0109686
0.0652153
1.01618e-10
-0.0109686
0.0652153
3.24969e-10
-0.0109686
0.0652153
1.31756e-11
-0.0109686
0.0652153
2.17951e-10
-0.0109686
1.03484e-10
-0.0109686
0.0690085
1.17311e-10
-0.0102666
0.0690085
4.62183e-10
-0.0102666
0.0690085
2.13481e-11
-0.0102666
0.0690085
5.18942e-11
-0.0102666
0.0690085
1.56993e-10
-0.0102666
0.0690085
1.8349e-10
-0.0102666
0.0690085
-5.74706e-11
-0.0102666
0.0690085
5.46141e-11
-0.0102666
0.0690085
4.04605e-10
-0.0102666
-1.24064e-10
-0.0102666
0.0728445
2.5486e-10
-0.00942347
0.0728445
1.21732e-10
-0.00942347
0.0728445
9.33747e-11
-0.00942347
0.0728445
8.19187e-11
-0.00942347
0.0728445
3.48085e-10
-0.00942347
0.0728445
-1.227e-10
-0.00942347
0.0728445
-5.90012e-11
-0.00942347
0.0728445
2.2301e-10
-0.00942347
0.0728445
1.31869e-10
-0.00942347
-5.25246e-11
-0.00942347
0.0766991
7.52835e-12
-0.00844681
0.0766991
-2.2223e-10
-0.00844681
0.0766991
1.55598e-10
-0.00844681
0.0766991
3.00654e-10
-0.00844682
0.0766991
-3.28847e-11
-0.00844681
0.0766991
-8.37566e-11
-0.00844681
0.0766991
6.05395e-11
-0.00844681
0.0766991
3.668e-11
-0.00844681
0.0766991
-1.56883e-10
-0.00844681
5.8435e-11
-0.00844681
0.0805476
-3.44476e-11
-0.00735111
0.0805476
-2.71805e-10
-0.00735111
0.0805476
2.07345e-10
-0.00735111
0.0805476
-1.88772e-10
-0.00735111
0.0805476
2.27604e-11
-0.00735111
0.0805476
-9.45254e-11
-0.00735111
0.0805476
1.43213e-10
-0.00735111
0.0805476
6.45799e-11
-0.00735111
0.0805476
-8.12938e-11
-0.00735111
1.55618e-11
-0.00735111
0.0843658
-2.39747e-10
-0.00615897
0.0843658
-3.08815e-10
-0.00615897
0.0843658
-4.47113e-10
-0.00615897
0.0843658
-3.83301e-10
-0.00615897
0.0843658
-2.2711e-10
-0.00615897
0.0843658
-3.45542e-10
-0.00615897
0.0843658
-1.47911e-12
-0.00615897
0.0843658
-1.61424e-10
-0.00615897
0.0843658
-2.97332e-10
-0.00615897
-2.11169e-10
-0.00615897
0.0881329
-4.72568e-10
-0.00490182
0.0881329
-2.92232e-10
-0.00490183
0.0881329
-5.62574e-10
-0.00490182
0.0881329
-5.60779e-10
-0.00490182
0.0881329
-3.94959e-10
-0.00490183
0.0881329
-5.06137e-10
-0.00490182
0.0881329
-1.11718e-10
-0.00490182
0.0881329
-4.06381e-10
-0.00490182
0.0881329
-4.79588e-10
-0.00490182
-4.78054e-10
-0.00490182
0.0918343
-4.12884e-10
-0.00362012
0.0918343
-2.07686e-10
-0.00362012
0.0918343
-5.70281e-10
-0.00362012
0.0918343
-5.19436e-10
-0.00362012
0.0918343
-4.82521e-10
-0.00362012
0.0918343
-4.04196e-10
-0.00362012
0.0918343
-6.79776e-10
-0.00362012
0.0918343
-3.90887e-10
-0.00362012
0.0918343
-3.53999e-10
-0.00362012
-3.54711e-10
-0.00362012
0.0954647
2.47196e-10
-0.00236256
0.0954647
4.75278e-10
-0.00236255
0.0954647
-8.5678e-11
-0.00236256
0.0954647
2.07989e-10
-0.00236256
0.0954647
1.97559e-11
-0.00236255
0.0954647
2.30302e-10
-0.00236256
0.0954647
1.31393e-10
-0.00236255
0.0954647
2.9786e-10
-0.00236256
0.0954647
4.66582e-10
-0.00236256
3.51367e-10
-0.00236255
0.0990318
7.315e-10
-0.00118407
0.0990318
9.65323e-10
-0.00118407
0.0990318
1.03237e-09
-0.00118407
0.0990318
9.04153e-10
-0.00118407
0.0990318
6.60912e-10
-0.00118407
0.0990318
6.37301e-10
-0.00118407
0.0990318
7.77394e-10
-0.00118407
0.0990318
8.83617e-10
-0.00118407
0.0990318
9.09698e-10
-0.00118407
7.78586e-10
-0.00118407
0.10256
9.12468e-10
-0.000142208
0.10256
1.34809e-09
-0.000142207
0.10256
1.23567e-09
-0.000142208
0.10256
1.14011e-09
-0.000142207
0.10256
1.95732e-09
-0.000142209
0.10256
1.02072e-09
-0.000142208
0.10256
1.27738e-09
-0.000142207
0.10256
1.00538e-09
-0.000142208
0.10256
1.27218e-09
-0.000142208
1.10931e-09
-0.000142207
0.106092
5.42177e-10
0.000708291
0.106092
9.34361e-10
0.000708292
0.106092
1.43275e-09
0.000708291
0.106092
6.48235e-10
0.000708292
0.106092
1.33939e-09
0.000708293
0.106092
1.23167e-09
0.000708291
0.106092
6.60779e-10
0.000708292
0.106092
6.80807e-10
0.000708293
0.106092
5.94769e-10
0.000708292
1.44877e-09
0.000708291
0.10969
-3.931e-10
0.00132266
0.10969
-5.54567e-10
0.00132266
0.10969
-2.6661e-10
0.00132266
0.10969
-6.11369e-10
0.00132266
0.10969
-3.93049e-10
0.00132266
0.10969
-4.71072e-10
0.00132266
0.10969
-7.23591e-10
0.00132266
0.10969
3.60346e-10
0.00132266
0.10969
-8.64165e-10
0.00132266
-2.38744e-10
0.00132266
0.113434
-4.19808e-10
0.00167428
0.113434
-7.14536e-10
0.00167428
0.113434
-2.31685e-10
0.00167428
0.113434
-6.25165e-10
0.00167428
0.113434
-6.88497e-10
0.00167428
0.113434
-6.59596e-10
0.00167428
0.113434
-2.94679e-10
0.00167428
0.113434
-2.42794e-10
0.00167428
0.113434
7.37072e-11
0.00167428
2.65153e-10
0.00167428
0.117413
-1.2038e-10
0.00176247
0.117413
-1.85532e-10
0.00176247
0.117413
-4.30092e-10
0.00176247
0.117413
1.49647e-10
0.00176247
0.117413
-6.98556e-11
0.00176247
0.117413
-4.78618e-10
0.00176247
0.117413
-5.69909e-10
0.00176247
0.117413
-8.86274e-11
0.00176247
0.117413
2.00823e-10
0.00176248
-3.21851e-10
0.00176247
0.121716
-6.97008e-10
0.00161765
0.121716
-1.08258e-09
0.00161765
0.121716
-6.81107e-10
0.00161765
0.121716
-3.17967e-10
0.00161765
0.121716
-8.33049e-10
0.00161765
0.121716
-1.04394e-09
0.00161765
0.121716
-5.6269e-10
0.00161765
0.121716
-1.143e-09
0.00161765
0.121716
-1.31181e-09
0.00161765
-4.44581e-10
0.00161765
0.126415
-1.42187e-09
0.00130098
0.126415
-8.30709e-10
0.00130099
0.126415
-2.19193e-09
0.00130098
0.126415
-2.2468e-09
0.00130099
0.126415
-1.27352e-09
0.00130098
0.126415
-1.57845e-09
0.00130098
0.126415
-2.03083e-09
0.00130099
0.126415
-1.76573e-09
0.00130098
0.126415
-1.05704e-09
0.00130099
-1.99085e-09
0.00130098
0.131556
-1.02436e-10
0.000896199
0.131556
-1.24357e-09
0.000896201
0.131556
-1.99951e-09
0.000896199
0.131556
-5.86013e-10
0.000896202
0.131556
-1.19828e-09
0.000896198
0.131556
-1.80012e-10
0.000896199
0.131556
-5.57633e-12
0.000896202
0.131556
-1.77534e-09
0.000896199
0.131556
-1.30348e-09
0.000896201
-7.62032e-10
0.000896198
0.137142
-1.48865e-09
0.000493248
0.137142
-9.73295e-10
0.000493244
0.137142
-1.36957e-09
0.000493246
0.137142
-1.73964e-09
0.000493249
0.137142
-5.82128e-10
0.000493245
0.137142
2.34047e-10
0.000493249
0.137142
-1.06192e-09
0.000493244
0.137142
-9.92108e-10
0.000493245
0.137142
-2.76502e-10
0.000493249
-1.69168e-09
0.000493245
0.14314
-2.65909e-10
0.000167221
0.14314
-2.08043e-09
0.000167216
0.14314
-1.21187e-09
0.000167218
0.14314
-1.05048e-09
0.000167222
0.14314
-1.05058e-09
0.000167216
0.14314
-1.29107e-09
0.000167222
0.14314
-2.01141e-09
0.000167217
0.14314
-1.71123e-10
0.000167218
0.14314
-2.62589e-09
0.000167221
-2.72779e-09
0.000167218
0.14949
-1.08e-09
-4.01893e-05
0.14949
-1.49351e-09
-4.01923e-05
0.14949
8.72291e-10
-4.01881e-05
0.14949
-1.61058e-09
-4.01942e-05
0.14949
-2.20089e-09
-4.01912e-05
0.14949
-2.11844e-10
-4.01959e-05
0.14949
3.61828e-10
-4.01939e-05
0.14949
-8.9359e-10
-4.01903e-05
0.14949
-2.20997e-09
-4.01933e-05
-3.74955e-10
-4.01926e-05
0.15613
2.88352e-09
-0.000128274
0.15613
3.3065e-09
-0.000128273
0.15613
1.87532e-09
-0.000128269
0.15613
8.56761e-10
-0.000128273
0.15613
2.19943e-09
-0.000128268
0.15613
1.50796e-09
-0.000128276
0.15613
6.99818e-10
-0.000128272
0.15613
2.32342e-09
-0.000128275
0.15613
1.06168e-09
-0.000128274
1.03682e-09
-0.00012827
0.163019
-2.4858e-09
-0.000129628
0.163019
-2.4025e-09
-0.000129624
0.163019
-3.7483e-10
-0.000129629
0.163019
-1.62112e-09
-0.000129627
0.163019
-2.84551e-09
-0.000129622
0.163019
-5.76257e-11
-0.000129626
0.163019
-2.38286e-10
-0.000129622
0.163019
-3.19433e-09
-0.000129631
0.163019
-2.25775e-09
-0.000129628
-7.15009e-10
-0.00012962
0.170147
-2.85353e-08
-9.12921e-05
0.170147
-2.86092e-08
-9.12848e-05
0.170147
-2.94943e-08
-9.12964e-05
0.170147
-2.93353e-08
-9.12926e-05
0.170147
-2.78781e-08
-9.12855e-05
0.170147
-2.90613e-08
-9.12938e-05
0.170147
-2.98015e-08
-9.12896e-05
0.170147
-2.79237e-08
-9.12917e-05
0.170147
-2.88207e-08
-9.12904e-05
-3.0029e-08
-9.12866e-05
0.177533
-4.83505e-08
-5.35172e-05
0.177533
-4.85283e-08
-5.351e-05
0.177533
-4.53846e-08
-5.35156e-05
0.177533
-4.56819e-08
-5.35158e-05
0.177533
-4.70017e-08
-5.35094e-05
0.177533
-4.58147e-08
-5.3513e-05
0.177533
-4.63637e-08
-5.35094e-05
0.177533
-4.82495e-08
-5.35183e-05
0.177533
-4.6039e-08
-5.35151e-05
-4.54079e-08
-5.35067e-05
0.185216
-1.92725e-08
-3.61106e-05
0.185216
-2.05245e-08
-3.60976e-05
0.185216
-2.10741e-08
-3.61103e-05
0.185216
-1.90039e-08
-3.61068e-05
0.185216
-2.02511e-08
-3.60922e-05
0.185216
-2.41403e-08
-3.61028e-05
0.185216
-2.53371e-08
-3.61134e-05
0.185216
-2.12689e-08
-3.61106e-05
0.185216
-2.07127e-08
-3.60991e-05
-2.2681e-08
-3.61132e-05
0.193229
-4.95803e-09
-3.72614e-05
0.193229
-7.73438e-09
-3.72522e-05
0.193229
-5.64902e-09
-3.72585e-05
0.193229
-5.02653e-09
-3.7265e-05
0.19323
-6.21603e-09
-3.72583e-05
0.193229
-3.77499e-09
-3.72614e-05
0.193229
-6.19321e-09
-3.72599e-05
0.193229
-8.64139e-09
-3.7252e-05
0.193229
-4.33925e-09
-3.72552e-05
-2.46072e-09
-3.72502e-05
0.201598
-1.72223e-08
-4.6123e-05
0.201598
-1.70763e-08
-4.61221e-05
0.201598
-1.9404e-08
-4.61136e-05
0.201598
-1.65561e-08
-4.612e-05
0.201598
-1.50891e-08
-4.61077e-05
0.201598
-1.82527e-08
-4.61288e-05
0.201598
-1.57522e-08
-4.61219e-05
0.201598
-1.6364e-08
-4.61078e-05
0.201598
-1.81934e-08
-4.61222e-05
-1.83551e-08
-4.61131e-05
0.210335
-1.91581e-08
-5.45155e-05
0.210335
-1.29508e-08
-5.45101e-05
0.210335
-1.72442e-08
-5.44943e-05
0.210335
-1.85543e-08
-5.45157e-05
0.210335
-1.39447e-08
-5.45061e-05
0.210335
-1.26905e-08
-5.45054e-05
0.210335
-1.50717e-08
-5.44958e-05
0.210335
-1.55187e-08
-5.45133e-05
0.210335
-1.61192e-08
-5.45143e-05
-1.73535e-08
-5.44994e-05
0.219453
-6.04239e-05
0.219453
-6.04452e-05
0.219453
-6.04364e-05
0.219453
-6.04195e-05
0.219453
-6.04398e-05
0.219453
-6.04352e-05
0.219453
-6.04336e-05
0.219453
-6.04229e-05
0.219453
-6.04407e-05
-6.04399e-05
0.00882086
-3.85398e-12
-0.00424991
0.00882086
-8.59615e-13
-0.00424991
0.00882086
9.23162e-12
-0.00424991
0.00882086
1.88108e-11
-0.00424991
0.00882086
-3.64292e-11
-0.00424991
0.00882086
5.68142e-12
-0.00424991
0.00882086
2.37962e-12
-0.00424991
0.00882086
-3.57781e-11
-0.00424991
0.00882086
-2.50609e-11
-0.00424991
1.40775e-11
-0.00424991
0.0124216
1.01343e-11
-0.00577415
0.0124216
-2.07296e-11
-0.00577415
0.0124216
6.96048e-12
-0.00577415
0.0124216
1.9439e-11
-0.00577415
0.0124216
-6.63309e-11
-0.00577415
0.0124216
2.69771e-11
-0.00577415
0.0124216
3.52547e-11
-0.00577415
0.0124216
-6.08462e-11
-0.00577415
0.0124216
-5.27765e-11
-0.00577415
3.54031e-11
-0.00577415
0.0149797
-3.37432e-11
-0.00675267
0.0149797
-1.37979e-11
-0.00675267
0.0149797
3.15103e-11
-0.00675267
0.0149797
4.60887e-12
-0.00675267
0.0149797
-3.80796e-11
-0.00675267
0.0149797
5.98246e-11
-0.00675267
0.0149797
7.89927e-11
-0.00675267
0.0149797
-4.64189e-11
-0.00675267
0.0149797
-8.3277e-11
-0.00675267
2.71853e-11
-0.00675267
0.0172078
-4.84419e-11
-0.00753297
0.0172078
8.8378e-12
-0.00753297
0.0172078
2.81467e-11
-0.00753297
0.0172078
-1.09521e-11
-0.00753297
0.0172078
-4.16347e-11
-0.00753297
0.0172078
5.45169e-11
-0.00753297
0.0172078
7.01716e-11
-0.00753297
0.0172078
-5.18139e-11
-0.00753297
0.0172078
-8.03252e-11
-0.00753297
-5.27037e-11
-0.00753297
0.019327
-5.68462e-11
-0.00821513
0.019327
4.2976e-11
-0.00821513
0.019327
7.41402e-11
-0.00821513
0.019327
3.86835e-11
-0.00821513
0.019327
-1.0705e-11
-0.00821513
0.019327
2.79353e-11
-0.00821513
0.019327
8.06241e-11
-0.00821513
0.019327
-1.26833e-11
-0.00821513
0.019327
-2.03786e-11
-0.00821513
-1.18717e-10
-0.00821513
0.0214331
-2.59956e-11
-0.00883732
0.0214331
1.00814e-10
-0.00883732
0.0214331
7.91028e-11
-0.00883732
0.0214331
4.21846e-11
-0.00883732
0.0214331
3.98477e-11
-0.00883732
0.0214331
4.93583e-11
-0.00883732
0.0214331
8.50384e-11
-0.00883732
0.0214331
2.5997e-12
-0.00883732
0.0214331
-6.93988e-11
-0.00883732
-7.5403e-11
-0.00883732
0.0235768
-2.34771e-11
-0.00941543
0.0235768
1.56827e-10
-0.00941543
0.0235768
8.68386e-11
-0.00941543
0.0235768
3.41701e-11
-0.00941543
0.0235768
1.06146e-10
-0.00941543
0.0235768
9.32042e-11
-0.00941543
0.0235768
4.01355e-11
-0.00941543
0.0235768
1.92155e-12
-0.00941543
0.0235768
-9.60037e-11
-0.00941543
-4.02642e-11
-0.00941543
0.0257889
-3.03661e-11
-0.00995533
0.0257889
7.10354e-11
-0.00995533
0.0257889
6.01128e-11
-0.00995533
0.0257889
-2.67794e-11
-0.00995533
0.0257889
1.42188e-10
-0.00995533
0.0257889
3.92449e-11
-0.00995533
0.0257889
2.17801e-11
-0.00995533
0.0257889
-2.18339e-11
-0.00995533
0.0257889
-9.97419e-11
-0.00995533
3.95053e-12
-0.00995533
0.0280903
-3.91238e-11
-0.0104575
0.0280903
-3.94035e-11
-0.0104575
0.0280903
-1.17228e-11
-0.0104575
0.0280903
-7.32719e-11
-0.0104575
0.0280903
9.54148e-11
-0.0104575
0.0280903
5.99115e-12
-0.0104575
0.0280903
7.77678e-12
-0.0104575
0.0280903
3.64636e-11
-0.0104575
0.0280903
-5.52061e-11
-0.0104575
7.74967e-11
-0.0104575
0.030496
-6.14988e-11
-0.0109191
0.030496
-4.32739e-11
-0.0109191
0.030496
-1.15529e-10
-0.0109191
0.030496
-1.45397e-10
-0.0109191
0.030496
2.20188e-11
-0.0109191
0.030496
6.16836e-11
-0.0109191
0.030496
8.70318e-11
-0.0109191
0.030496
4.23098e-11
-0.0109191
0.030496
-1.55083e-11
-0.0109191
4.98022e-11
-0.0109191
0.033017
-6.68486e-11
-0.011335
0.033017
-1.28558e-10
-0.011335
0.033017
-9.34533e-11
-0.011335
0.033017
-1.36452e-10
-0.011335
0.033017
-1.01475e-11
-0.011335
0.033017
1.47044e-10
-0.011335
0.033017
4.13905e-11
-0.011335
0.033017
5.86275e-11
-0.011335
0.033017
5.51862e-11
-0.011335
-1.06032e-11
-0.011335
0.0356619
-2.96925e-11
-0.0116982
0.0356619
-1.1686e-10
-0.0116982
0.0356619
4.53527e-11
-0.0116982
0.0356619
-1.89958e-11
-0.0116982
0.0356619
-7.55121e-11
-0.0116982
0.0356619
1.35074e-10
-0.0116982
0.0356619
1.90199e-11
-0.0116982
0.0356619
7.55897e-11
-0.0116982
0.0356619
8.96012e-11
-0.0116982
3.06386e-12
-0.0116982
0.0384364
-1.13667e-12
-0.0120002
0.0384364
-1.45715e-10
-0.0120002
0.0384364
1.08057e-11
-0.0120002
0.0384364
-1.54459e-11
-0.0120002
0.0384364
-1.51756e-10
-0.0120002
0.0384364
5.80693e-11
-0.0120002
0.0384364
-9.59429e-12
-0.0120002
0.0384364
-8.41637e-11
-0.0120002
0.0384364
6.43432e-11
-0.0120002
8.01795e-11
-0.0120002
0.0413444
-3.01958e-11
-0.0122314
0.0413444
-1.39335e-10
-0.0122314
0.0413444
9.39871e-11
-0.0122314
0.0413444
1.11528e-11
-0.0122314
0.0413444
-1.31681e-10
-0.0122314
0.0413444
-4.39936e-11
-0.0122314
0.0413444
-1.97123e-11
-0.0122314
0.0413444
-1.57715e-10
-0.0122314
0.0413444
-1.44451e-10
-0.0122314
1.36996e-10
-0.0122314
0.0443871
-1.3373e-10
-0.0123814
0.0443871
-1.21772e-10
-0.0123814
0.0443871
-6.97968e-11
-0.0123814
0.0443871
-4.70759e-12
-0.0123814
0.0443871
-6.78019e-11
-0.0123814
0.0443871
-1.09346e-10
-0.0123814
0.0443871
9.79094e-11
-0.0123814
0.0443871
-8.39078e-11
-0.0123814
0.0443871
-1.4806e-10
-0.0123814
-4.18279e-11
-0.0123814
0.0475636
-1.45714e-10
-0.0124392
0.0475636
1.16147e-11
-0.0124392
0.0475636
-9.45228e-11
-0.0124392
0.0475636
1.17937e-10
-0.0124392
0.0475636
8.48379e-11
-0.0124392
0.0475636
-1.32213e-10
-0.0124392
0.0475636
-5.6973e-11
-0.0124392
0.0475636
-9.78378e-11
-0.0124392
0.0475636
-4.01184e-12
-0.0124392
-1.83363e-10
-0.0124392
0.05087
-8.81283e-11
-0.0123932
0.05087
9.95694e-11
-0.0123932
0.05087
4.6984e-11
-0.0123932
0.05087
-3.88649e-11
-0.0123932
0.05087
2.15345e-10
-0.0123932
0.05087
1.69469e-11
-0.0123932
0.05087
-2.25837e-10
-0.0123932
0.05087
-2.83e-11
-0.0123932
0.05087
2.91039e-11
-0.0123932
-1.25995e-10
-0.0123932
0.0542997
1.31641e-11
-0.0122326
0.0542997
-3.04914e-11
-0.0122326
0.0542997
-6.01592e-11
-0.0122326
0.0542997
5.87107e-11
-0.0122326
0.0542997
4.75881e-12
-0.0122326
0.0542997
-1.42753e-10
-0.0122326
0.0542997
-8.09247e-11
-0.0122326
0.0542997
6.28095e-11
-0.0122326
0.0542997
-1.82468e-10
-0.0122326
9.82079e-12
-0.0122326
0.057843
-1.13991e-10
-0.011947
0.057843
1.45217e-10
-0.011947
0.057843
-1.64998e-10
-0.011947
0.057843
-2.93782e-11
-0.011947
0.057843
6.80653e-11
-0.011947
0.057843
-8.31008e-11
-0.011947
0.057843
1.36183e-11
-0.011947
0.057843
9.01099e-11
-0.011947
0.057843
8.16989e-13
-0.011947
-9.39002e-11
-0.011947
0.061487
4.89879e-11
-0.0115278
0.061487
-4.40373e-11
-0.0115278
0.061487
4.48977e-11
-0.0115278
0.061487
2.06535e-10
-0.0115278
0.061487
-1.80015e-10
-0.0115278
0.061487
7.80611e-11
-0.0115278
0.061487
2.54699e-10
-0.0115278
0.061487
-1.62868e-10
-0.0115278
0.061487
8.90209e-11
-0.0115278
6.13524e-11
-0.0115278
0.0652153
1.74448e-10
-0.0109686
0.0652153
3.39443e-11
-0.0109686
0.0652153
1.72057e-10
-0.0109686
0.0652153
5.63909e-11
-0.0109686
0.0652153
1.36848e-12
-0.0109686
0.0652153
3.2094e-10
-0.0109686
0.0652153
1.05633e-10
-0.0109686
0.0652153
2.94033e-12
-0.0109686
0.0652153
1.84031e-10
-0.0109686
2.17552e-10
-0.0109686
0.0690085
2.27603e-10
-0.0102666
0.0690085
6.97012e-11
-0.0102666
0.0690085
2.31854e-10
-0.0102666
0.0690085
1.94932e-10
-0.0102666
0.0690085
1.83752e-10
-0.0102666
0.0690085
7.62262e-11
-0.0102666
0.0690085
1.64934e-10
-0.0102666
0.0690085
7.79133e-11
-0.0102666
0.0690085
2.47226e-10
-0.0102666
2.47302e-10
-0.0102666
0.0728445
-3.30369e-10
-0.00942347
0.0728445
9.21563e-11
-0.00942347
0.0728445
-3.54803e-11
-0.00942347
0.0728445
-1.25324e-10
-0.00942347
0.0728445
2.50719e-10
-0.00942347
0.0728445
-2.06257e-10
-0.00942347
0.0728445
-1.04178e-10
-0.00942347
0.0728445
2.17638e-10
-0.00942347
0.0728445
9.58459e-12
-0.00942347
7.17739e-11
-0.00942347
0.0766991
-2.43544e-10
-0.00844681
0.0766991
-9.68309e-11
-0.00844681
0.0766991
-1.68128e-10
-0.00844681
0.0766991
-4.04368e-10
-0.00844681
0.0766991
5.21509e-11
-0.00844681
0.0766991
-3.96021e-10
-0.00844681
0.0766991
-3.43617e-10
-0.00844681
0.0766991
-6.87084e-11
-0.00844681
0.0766991
-1.96386e-10
-0.00844681
-3.28262e-10
-0.00844681
0.0805476
-3.36432e-10
-0.00735111
0.0805476
-8.26252e-11
-0.00735111
0.0805476
-2.08215e-10
-0.00735111
0.0805476
-4.53851e-10
-0.00735111
0.0805476
3.06751e-11
-0.00735111
0.0805476
-4.02688e-10
-0.00735111
0.0805476
-4.12331e-10
-0.00735111
0.0805476
-8.45877e-11
-0.00735111
0.0805476
-2.5323e-10
-0.00735111
-4.88789e-10
-0.00735111
0.0843658
-1.75865e-11
-0.00615897
0.0843658
-3.42582e-10
-0.00615897
0.0843658
-2.99154e-11
-0.00615897
0.0843658
-1.19266e-10
-0.00615897
0.0843658
-1.24566e-10
-0.00615897
0.0843658
-3.74244e-10
-0.00615897
0.0843658
-1.14017e-10
-0.00615897
0.0843658
-3.01055e-10
-0.00615897
0.0843658
-6.81631e-10
-0.00615897
-2.56445e-10
-0.00615897
0.0881329
-2.49117e-10
-0.00490182
0.0881329
-4.40494e-10
-0.00490183
0.0881329
-1.38899e-10
-0.00490182
0.0881329
-2.70778e-10
-0.00490182
0.0881329
-1.55396e-10
-0.00490182
0.0881329
-1.20771e-10
-0.00490182
0.0881329
-2.56925e-10
-0.00490182
0.0881329
-5.4675e-10
-0.00490182
0.0881329
-2.49803e-10
-0.00490182
-3.91487e-10
-0.00490182
0.0918343
-5.25395e-11
-0.00362012
0.0918343
-2.88876e-10
-0.00362012
0.0918343
1.65701e-10
-0.00362012
0.0918343
-1.95842e-11
-0.00362012
0.0918343
-5.01533e-10
-0.00362012
0.0918343
-8.71055e-11
-0.00362012
0.0918343
-1.00775e-10
-0.00362012
0.0918343
-2.71425e-10
-0.00362012
0.0918343
-4.89735e-11
-0.00362012
-2.12742e-10
-0.00362012
0.0954647
3.75621e-10
-0.00236256
0.0954647
5.14746e-10
-0.00236256
0.0954647
-9.29699e-12
-0.00236255
0.0954647
4.66553e-10
-0.00236256
0.0954647
1.03115e-10
-0.00236255
0.0954647
2.30305e-10
-0.00236256
0.0954647
3.18512e-10
-0.00236256
0.0954647
2.75112e-10
-0.00236256
0.0954647
4.64744e-10
-0.00236256
5.75418e-11
-0.00236255
0.0990318
4.88937e-11
-0.00118407
0.0990318
2.17899e-10
-0.00118407
0.0990318
4.60445e-11
-0.00118407
0.0990318
3.61973e-10
-0.00118407
0.0990318
-9.27285e-11
-0.00118407
0.0990318
-7.09487e-11
-0.00118407
0.0990318
2.4045e-10
-0.00118407
0.0990318
-8.8593e-11
-0.00118407
0.0990318
1.64811e-10
-0.00118407
-1.08396e-12
-0.00118407
0.10256
1.19503e-12
-0.000142208
0.10256
1.35052e-10
-0.000142207
0.10256
2.57606e-10
-0.000142208
0.10256
3.91299e-10
-0.000142207
0.10256
2.53133e-11
-0.000142209
0.10256
5.21164e-11
-0.000142208
0.10256
9.95297e-12
-0.000142207
0.10256
-2.65278e-10
-0.000142208
0.10256
-1.25164e-10
-0.000142207
5.5953e-10
-0.000142208
0.106092
1.04008e-09
0.00070829
0.106092
6.95324e-10
0.000708291
0.106092
1.1161e-09
0.000708291
0.106092
7.09289e-10
0.000708292
0.106092
8.92819e-10
0.000708291
0.106092
1.57864e-09
0.00070829
0.106092
1.25016e-09
0.000708291
0.106092
1.73974e-09
0.00070829
0.106092
9.16972e-10
0.000708291
1.59522e-09
0.00070829
0.10969
6.92725e-10
0.00132266
0.10969
6.319e-10
0.00132266
0.10969
9.61868e-10
0.00132266
0.10969
5.26054e-10
0.00132266
0.10969
6.86544e-10
0.00132266
0.10969
1.02109e-09
0.00132266
0.10969
4.46503e-10
0.00132266
0.10969
1.3858e-09
0.00132266
0.10969
1.07019e-09
0.00132266
1.28674e-09
0.00132266
0.113434
1.24895e-09
0.00167428
0.113434
6.83725e-10
0.00167428
0.113434
8.73973e-10
0.00167428
0.113434
1.1462e-09
0.00167428
0.113434
9.46151e-10
0.00167428
0.113434
8.17178e-10
0.00167428
0.113434
1.08497e-09
0.00167428
0.113434
7.21221e-10
0.00167428
0.113434
1.11377e-09
0.00167428
1.21604e-09
0.00167428
0.117413
6.10182e-10
0.00176247
0.117413
1.07915e-09
0.00176247
0.117413
6.12476e-10
0.00176247
0.117413
1.18799e-09
0.00176247
0.117413
1.30607e-09
0.00176247
0.117413
2.01056e-10
0.00176247
0.117413
1.17407e-09
0.00176247
0.117413
1.09443e-09
0.00176247
0.117413
7.58893e-10
0.00176248
8.00117e-10
0.00176247
0.121716
2.24091e-10
0.00161765
0.121716
1.12554e-09
0.00161765
0.121716
2.33411e-10
0.00161765
0.121716
1.68222e-10
0.00161765
0.121716
1.15806e-09
0.00161765
0.121716
5.78449e-10
0.00161765
0.121716
3.83695e-10
0.00161765
0.121716
8.60422e-10
0.00161765
0.121716
1.00886e-09
0.00161765
2.69037e-10
0.00161765
0.126415
4.89033e-10
0.00130098
0.126415
2.78616e-10
0.00130099
0.126415
4.14769e-10
0.00130098
0.126415
7.99551e-10
0.00130099
0.126415
4.00243e-10
0.00130098
0.126415
6.92105e-10
0.00130098
0.126415
1.22163e-09
0.00130099
0.126415
-6.43068e-11
0.00130098
0.126415
-5.73582e-11
0.00130099
6.69822e-10
0.00130098
0.131556
1.81034e-09
0.000896198
0.131556
2.5464e-09
0.000896201
0.131556
6.09554e-10
0.000896198
0.131556
9.91752e-10
0.0008962
0.131556
1.73511e-09
0.000896197
0.131556
2.43398e-09
0.000896198
0.131556
1.36178e-09
0.000896201
0.131556
7.03676e-10
0.000896199
0.131556
1.64119e-09
0.000896201
8.87582e-10
0.000896197
0.137142
5.01947e-09
0.000493247
0.137142
3.71685e-09
0.000493241
0.137142
4.10393e-09
0.000493243
0.137142
5.18735e-09
0.000493247
0.137142
3.63013e-09
0.000493242
0.137142
3.90564e-09
0.000493246
0.137142
4.53773e-09
0.000493241
0.137142
3.99089e-09
0.000493243
0.137142
3.41579e-09
0.000493246
4.08488e-09
0.000493242
0.14314
2.47258e-09
0.000167221
0.14314
3.2678e-09
0.000167218
0.14314
4.43554e-09
0.000167219
0.14314
3.02428e-09
0.000167222
0.14314
3.29045e-09
0.000167217
0.14314
5.12863e-09
0.000167222
0.14314