/*--------------------------------*- C++ -*----------------------------------*\
| =========                 |                                                 |
| \\      /  F ield         | OpenFOAM: The Open Source CFD Toolbox           |
|  \\    /   O peration     | Version:  v1806                                 |
|   \\  /    A nd           | Web:      www.OpenFOAM.com                      |
|    \\/     M anipulation  |                                                 |
\*---------------------------------------------------------------------------*/
FoamFile
{
    version     2.0;
    format      ascii;
    class       volVectorField;
    location    "350000";
    object      U;
}
// * * * * * * * * * * * * * * * * * * * * * * * * * * * * * * * * * * * * * //

dimensions      [0 1 -1 0 0 0 0];


internalField   nonuniform List<vector> 
5000
(
(4.98299 2.40081 -3.99179e-10)
(4.98299 2.40081 -3.90591e-11)
(4.98299 2.40081 2.52833e-09)
(4.98299 2.40081 3.22652e-09)
(4.98299 2.40081 -8.90593e-10)
(4.98299 2.40081 -3.10683e-10)
(4.98299 2.40081 -2.77199e-10)
(4.98299 2.40081 -1.06992e-09)
(4.98299 2.40081 -1.71232e-09)
(4.98299 2.40081 -5.09205e-10)
(6.72554 3.12634 -2.76911e-10)
(6.72554 3.12634 1.30828e-09)
(6.72554 3.12634 5.75166e-09)
(6.72554 3.12634 5.1532e-09)
(6.72554 3.12634 -3.8279e-09)
(6.72554 3.12634 -1.82087e-09)
(6.72554 3.12634 3.61937e-11)
(6.72554 3.12634 -2.76548e-09)
(6.72554 3.12634 -5.00154e-09)
(6.72554 3.12634 -1.82403e-09)
(7.77356 3.50424 -8.22441e-10)
(7.77356 3.50424 -4.48529e-10)
(7.77356 3.50424 8.04212e-09)
(7.77356 3.50424 -7.52572e-11)
(7.77356 3.50424 -5.79173e-09)
(7.77356 3.50424 -6.79007e-11)
(7.77356 3.50424 4.43473e-09)
(7.77356 3.50424 -6.85857e-10)
(7.77356 3.50424 -5.9545e-09)
(7.77356 3.50424 -3.96617e-10)
(8.55879 3.74674 -5.60856e-09)
(8.55879 3.74674 -2.72906e-10)
(8.55879 3.74674 7.19083e-09)
(8.55879 3.74674 -4.14144e-09)
(8.55879 3.74674 -6.20379e-09)
(8.55879 3.74674 1.51005e-09)
(8.55879 3.74674 4.86572e-09)
(8.55879 3.74674 2.70393e-09)
(8.55879 3.74674 -1.03337e-09)
(8.55879 3.74674 -3.40687e-10)
(9.21343 3.91626 -1.16258e-08)
(9.21343 3.91626 -2.02245e-09)
(9.21343 3.91626 7.37287e-10)
(9.21343 3.91626 -6.56271e-09)
(9.21343 3.91626 -5.35095e-09)
(9.21343 3.91626 8.08708e-10)
(9.21343 3.91626 6.67332e-10)
(9.21343 3.91626 4.98163e-09)
(9.21343 3.91626 -2.94576e-09)
(9.21343 3.91626 9.33147e-11)
(9.7929 4.03783 -1.6576e-08)
(9.7929 4.03783 -7.27457e-09)
(9.7929 4.03783 -6.00016e-09)
(9.7929 4.03783 -8.90179e-09)
(9.7929 4.03783 -3.29969e-09)
(9.7929 4.03783 -1.52615e-09)
(9.7929 4.03783 -1.60416e-09)
(9.7929 4.03783 3.64501e-09)
(9.7929 4.03783 -1.55749e-09)
(9.7929 4.03783 6.25741e-10)
(10.3248 4.12322 -1.76833e-08)
(10.3248 4.12322 -3.60155e-09)
(10.3248 4.12322 -3.03616e-09)
(10.3248 4.12322 -1.11287e-08)
(10.3248 4.12322 -6.67199e-09)
(10.3248 4.12322 3.21773e-10)
(10.3248 4.12322 -3.44191e-09)
(10.3248 4.12322 6.18253e-11)
(10.3248 4.12322 3.13411e-09)
(10.3248 4.12322 -2.33155e-09)
(10.8243 4.17851 -1.27509e-08)
(10.8243 4.17851 -1.48364e-09)
(10.8243 4.17851 -1.99823e-09)
(10.8243 4.17851 -1.23392e-08)
(10.8243 4.17851 -6.34151e-09)
(10.8243 4.17851 4.61021e-09)
(10.8243 4.17851 2.89945e-11)
(10.8243 4.17851 2.57916e-09)
(10.8243 4.17851 3.41762e-09)
(10.8243 4.17851 -5.57271e-10)
(11.3004 4.20692 -5.0455e-10)
(11.3004 4.20692 -3.02023e-09)
(11.3004 4.20692 -8.58234e-09)
(11.3004 4.20692 -7.66264e-09)
(11.3004 4.20692 -9.11914e-10)
(11.3004 4.20692 -1.43881e-09)
(11.3004 4.20692 4.14479e-09)
(11.3004 4.20692 4.40497e-09)
(11.3004 4.20692 7.58514e-09)
(11.3004 4.20692 2.5101e-09)
(11.7584 4.21011 9.40442e-09)
(11.7584 4.21011 8.04573e-09)
(11.7584 4.21011 -6.18722e-09)
(11.7584 4.21011 -1.19582e-08)
(11.7584 4.21011 -1.13978e-08)
(11.7584 4.21011 -5.20274e-09)
(11.7584 4.21011 5.2936e-09)
(11.7584 4.21011 9.97151e-09)
(11.7584 4.21011 8.48867e-09)
(11.7584 4.21011 6.21631e-09)
(12.2015 4.18887 9.12596e-09)
(12.2015 4.18887 1.1183e-08)
(12.2015 4.18887 1.56937e-09)
(12.2015 4.18887 -1.64119e-08)
(12.2015 4.18887 -2.01759e-08)
(12.2015 4.18887 -5.97827e-09)
(12.2015 4.18887 1.27902e-09)
(12.2015 4.18887 8.80534e-09)
(12.2015 4.18887 6.01317e-09)
(12.2015 4.18887 8.36306e-09)
(12.6313 4.14345 5.14134e-09)
(12.6313 4.14345 -3.40564e-09)
(12.6313 4.14345 7.60324e-09)
(12.6313 4.14345 -5.8731e-09)
(12.6313 4.14345 -1.63682e-08)
(12.6313 4.14345 1.02037e-08)
(12.6313 4.14345 7.60192e-10)
(12.6313 4.14345 -5.01966e-09)
(12.6313 4.14345 7.3354e-09)
(12.6313 4.14345 1.45521e-08)
(13.0484 4.07381 -2.34629e-09)
(13.0484 4.07381 -3.54651e-09)
(13.0484 4.07381 7.37634e-09)
(13.0484 4.07381 -1.26562e-09)
(13.0484 4.07381 -3.66357e-09)
(13.0484 4.07381 1.1094e-08)
(13.0484 4.07381 -1.4257e-09)
(13.0484 4.07381 -9.17847e-09)
(13.0484 4.07381 3.15448e-09)
(13.0484 4.07381 1.61396e-08)
(13.4524 3.97979 5.23258e-09)
(13.4524 3.97979 -8.79584e-09)
(13.4524 3.97979 -5.07347e-09)
(13.4524 3.97979 4.01565e-09)
(13.4524 3.97979 6.16515e-09)
(13.4524 3.97979 6.46841e-09)
(13.4524 3.97979 -7.34887e-09)
(13.4524 3.97979 -5.42511e-09)
(13.4524 3.97979 -2.23429e-08)
(13.4524 3.97979 -2.82512e-09)
(13.8424 3.86122 4.95621e-09)
(13.8424 3.86122 -1.09474e-08)
(13.8424 3.86122 3.82446e-09)
(13.8424 3.86122 2.81265e-09)
(13.8424 3.86122 1.98486e-09)
(13.8424 3.86122 -8.61094e-09)
(13.8424 3.86122 -1.33222e-08)
(13.8424 3.86122 -6.32276e-10)
(13.8424 3.86122 -2.37312e-08)
(13.8424 3.86122 5.46968e-09)
(14.2167 3.71804 -1.94472e-08)
(14.2167 3.71804 -7.86962e-09)
(14.2167 3.71804 -2.1096e-08)
(14.2167 3.71804 -2.72805e-09)
(14.2167 3.71804 -5.72054e-09)
(14.2167 3.71804 -3.08731e-08)
(14.2167 3.71804 -6.25888e-09)
(14.2167 3.71804 -1.08412e-08)
(14.2167 3.71804 -1.2544e-08)
(14.2167 3.71804 -4.00447e-09)
(14.5732 3.5504 -3.20467e-08)
(14.5732 3.5504 -6.41089e-09)
(14.5732 3.5504 -2.26152e-08)
(14.5732 3.5504 -1.22226e-08)
(14.5732 3.5504 4.6165e-09)
(14.5732 3.5504 7.28519e-09)
(14.5732 3.5504 -2.16187e-09)
(14.5732 3.5504 -2.19873e-08)
(14.5732 3.5504 -2.61065e-09)
(14.5732 3.5504 -1.54657e-08)
(14.9094 3.35878 -8.84047e-09)
(14.9094 3.35878 -7.56144e-09)
(14.9094 3.35878 3.04564e-09)
(14.9094 3.35878 -1.39322e-08)
(14.9094 3.35878 6.27115e-10)
(14.9094 3.35878 1.00212e-08)
(14.9094 3.35878 -1.11599e-08)
(14.9094 3.35878 2.56008e-09)
(14.9094 3.35878 -2.62358e-09)
(14.9094 3.35878 -1.70214e-08)
(15.2224 3.14406 -3.26215e-09)
(15.2224 3.14406 4.00962e-09)
(15.2224 3.14406 -1.62854e-10)
(15.2224 3.14406 -5.69998e-09)
(15.2224 3.14406 1.23746e-08)
(15.2224 3.14406 -1.57307e-08)
(15.2224 3.14406 -1.73385e-08)
(15.2224 3.14406 1.14078e-08)
(15.2224 3.14406 -1.23561e-08)
(15.2224 3.14406 -7.02676e-09)
(15.509 2.90768 1.44765e-08)
(15.509 2.90768 1.67897e-08)
(15.509 2.90768 4.01922e-09)
(15.509 2.90768 2.01852e-08)
(15.509 2.90768 1.39612e-08)
(15.509 2.90768 -9.0031e-09)
(15.509 2.90768 1.78372e-08)
(15.509 2.90768 7.00758e-09)
(15.509 2.90768 -9.02305e-09)
(15.509 2.90768 2.22709e-08)
(15.7659 2.65167 4.99929e-08)
(15.7659 2.65168 8.71071e-09)
(15.7659 2.65168 2.43267e-08)
(15.7659 2.65168 3.86364e-08)
(15.7659 2.65167 9.2439e-09)
(15.7659 2.65167 5.31371e-09)
(15.7659 2.65168 3.50109e-08)
(15.7659 2.65167 2.18877e-09)
(15.7659 2.65167 1.13889e-08)
(15.7659 2.65168 2.41063e-08)
(15.9898 2.37884 1.93853e-08)
(15.9898 2.37884 3.73285e-08)
(15.9898 2.37884 1.71831e-08)
(15.9898 2.37884 2.29286e-08)
(15.9898 2.37884 7.94642e-09)
(15.9898 2.37884 1.74997e-08)
(15.9898 2.37884 2.04959e-08)
(15.9898 2.37884 2.00231e-09)
(15.9898 2.37884 3.09182e-08)
(15.9898 2.37884 -3.61684e-09)
(16.1773 2.09277 1.81835e-08)
(16.1773 2.09277 4.42302e-08)
(16.1773 2.09277 3.00729e-09)
(16.1773 2.09277 -5.5263e-09)
(16.1773 2.09277 2.53351e-08)
(16.1773 2.09277 8.28222e-09)
(16.1773 2.09277 -1.63108e-08)
(16.1773 2.09277 9.42484e-09)
(16.1773 2.09277 4.21729e-08)
(16.1773 2.09277 -1.07775e-08)
(16.3256 1.79793 1.58916e-08)
(16.3256 1.79793 -1.45643e-08)
(16.3256 1.79793 7.76573e-09)
(16.3256 1.79793 2.40889e-08)
(16.3256 1.79793 3.1329e-08)
(16.3256 1.79793 -1.67722e-08)
(16.3256 1.79793 -2.21183e-09)
(16.3256 1.79793 2.1901e-08)
(16.3256 1.79793 -1.01003e-08)
(16.3256 1.79793 -6.95549e-10)
(16.4324 1.49969 -3.78036e-09)
(16.4324 1.49969 -3.20973e-08)
(16.4324 1.49969 2.33448e-08)
(16.4324 1.49969 2.29577e-08)
(16.4324 1.49969 -1.05566e-08)
(16.4324 1.49969 -8.65263e-09)
(16.4324 1.49969 1.12779e-08)
(16.4324 1.49969 -1.0051e-09)
(16.4324 1.49969 -1.70992e-08)
(16.4324 1.49969 4.30033e-09)
(16.4962 1.20428 -7.42086e-09)
(16.4962 1.20428 -2.17485e-08)
(16.4962 1.20428 2.80907e-09)
(16.4962 1.20428 -4.10196e-08)
(16.4962 1.20428 -7.3558e-09)
(16.4962 1.20428 -8.11119e-09)
(16.4962 1.20428 1.52347e-08)
(16.4962 1.20428 3.36846e-09)
(16.4962 1.20428 -6.45275e-09)
(16.4962 1.20428 8.82155e-11)
(16.5168 0.918642 -4.11355e-08)
(16.5168 0.918642 -3.5833e-08)
(16.5168 0.918642 -7.3409e-08)
(16.5168 0.918642 -5.49944e-08)
(16.5168 0.918642 -3.67861e-08)
(16.5168 0.918642 -6.36267e-08)
(16.5168 0.918642 -5.6997e-09)
(16.5168 0.918642 -2.97775e-08)
(16.5168 0.918642 -4.93357e-08)
(16.5168 0.918642 -4.10942e-08)
(16.4954 0.650251 -5.00259e-08)
(16.4954 0.650251 -2.93405e-08)
(16.4954 0.650251 -5.04936e-08)
(16.4954 0.650251 -4.90647e-08)
(16.4954 0.650251 -4.18535e-08)
(16.4954 0.650251 -4.0048e-08)
(16.4954 0.650251 -4.41439e-08)
(16.4954 0.650251 -4.70557e-08)
(16.4954 0.650251 -4.87669e-08)
(16.4954 0.650251 -5.45337e-08)
(16.435 0.406733 -3.58135e-08)
(16.435 0.406733 -9.63929e-09)
(16.435 0.406733 -6.74434e-08)
(16.435 0.406733 -5.53966e-08)
(16.435 0.406733 -5.60001e-08)
(16.435 0.406733 -3.27796e-08)
(16.435 0.406733 -6.49735e-08)
(16.435 0.406733 -3.60391e-08)
(16.435 0.406733 -1.81731e-08)
(16.435 0.406733 -1.71409e-08)
(16.3407 0.195377 9.01086e-08)
(16.3407 0.195377 1.08732e-07)
(16.3407 0.195377 8.08732e-08)
(16.3407 0.195377 9.74511e-08)
(16.3407 0.195377 5.77183e-08)
(16.3407 0.195377 7.07236e-08)
(16.3407 0.195377 8.87533e-08)
(16.3407 0.195377 9.9689e-08)
(16.3407 0.195377 1.07117e-07)
(16.3407 0.195377 8.82172e-08)
(16.2197 0.0224899 4.63215e-08)
(16.2197 0.02249 8.82558e-08)
(16.2197 0.0224901 8.99594e-08)
(16.2197 0.0224898 7.85134e-08)
(16.2197 0.0224899 1.12991e-07)
(16.2197 0.0224901 5.29262e-08)
(16.2197 0.0224898 6.9277e-08)
(16.2197 0.0224899 6.74276e-08)
(16.2197 0.0224901 8.76378e-08)
(16.2197 0.0224898 6.54584e-08)
(16.0812 -0.107361 1.4046e-07)
(16.0812 -0.107362 1.74448e-07)
(16.0812 -0.107361 1.97678e-07)
(16.0812 -0.107361 1.48826e-07)
(16.0812 -0.107362 2.40666e-07)
(16.0812 -0.107361 1.79839e-07)
(16.0812 -0.107361 1.65085e-07)
(16.0812 -0.107362 1.33843e-07)
(16.0812 -0.107362 1.48708e-07)
(16.0812 -0.107361 1.97203e-07)
(15.9358 -0.192156 -2.04825e-08)
(15.9358 -0.192156 5.6706e-09)
(15.9358 -0.192156 5.09037e-08)
(15.9358 -0.192156 -9.1717e-09)
(15.9358 -0.192156 3.23131e-08)
(15.9358 -0.192156 3.71873e-08)
(15.9358 -0.192157 -2.16366e-08)
(15.9358 -0.192156 4.48805e-08)
(15.9358 -0.192156 -3.68836e-08)
(15.9358 -0.192157 4.33454e-08)
(15.7949 -0.233133 -7.38865e-08)
(15.7949 -0.233133 -1.23512e-07)
(15.7949 -0.233133 -8.75972e-08)
(15.7949 -0.233133 -1.2082e-07)
(15.7949 -0.233133 -1.24239e-07)
(15.7949 -0.233133 -1.23175e-07)
(15.7949 -0.233133 -1.07877e-07)
(15.7949 -0.233133 -3.04634e-08)
(15.7949 -0.233133 -9.43407e-08)
(15.7949 -0.233133 -7.04448e-08)
(15.6697 -0.235217 1.68625e-08)
(15.6697 -0.235216 1.21228e-08)
(15.6697 -0.235217 2.76199e-08)
(15.6697 -0.235217 1.18745e-08)
(15.6697 -0.235216 -1.58975e-10)
(15.6697 -0.235217 -1.00448e-08)
(15.6697 -0.235217 1.06057e-08)
(15.6697 -0.235216 2.44354e-08)
(15.6697 -0.235217 8.51784e-08)
(15.6697 -0.235217 8.30287e-08)
(15.569 -0.206919 -6.33266e-08)
(15.569 -0.206919 -9.83347e-08)
(15.569 -0.206918 -8.00649e-08)
(15.569 -0.206919 4.28185e-09)
(15.569 -0.206919 -3.09471e-08)
(15.569 -0.206919 -8.70652e-08)
(15.569 -0.206919 -7.53664e-08)
(15.569 -0.206919 -8.42247e-08)
(15.569 -0.206919 -9.7966e-08)
(15.569 -0.206918 -8.6407e-08)
(15.4983 -0.159498 -8.81621e-08)
(15.4983 -0.159499 -6.93238e-08)
(15.4983 -0.159499 -1.15616e-07)
(15.4983 -0.159498 -1.21785e-07)
(15.4983 -0.159498 -9.69348e-08)
(15.4983 -0.159499 -1.16191e-07)
(15.4983 -0.159498 -1.19608e-07)
(15.4983 -0.159498 -1.11204e-07)
(15.4983 -0.159499 -8.50506e-08)
(15.4983 -0.159499 -8.21996e-08)
(15.4584 -0.105307 -1.56428e-07)
(15.4584 -0.105307 -1.57346e-07)
(15.4584 -0.105307 -3.00647e-07)
(15.4584 -0.105308 -2.39429e-07)
(15.4584 -0.105307 -2.13795e-07)
(15.4584 -0.105307 -1.95529e-07)
(15.4584 -0.105308 -2.01828e-07)
(15.4584 -0.105308 -2.95119e-07)
(15.4584 -0.105307 -2.22775e-07)
(15.4584 -0.105307 -2.37376e-07)
(15.4452 -0.0555508 5.64332e-08)
(15.4452 -0.0555499 -1.0527e-09)
(15.4452 -0.0555509 -7.41087e-08)
(15.4452 -0.0555508 2.12126e-08)
(15.4452 -0.0555501 3.65088e-08)
(15.4452 -0.0555511 1.53096e-07)
(15.4452 -0.0555509 1.43035e-07)
(15.4452 -0.0555502 9.32661e-09)
(15.4452 -0.0555511 5.68634e-08)
(15.4452 -0.0555509 1.72249e-08)
(15.4509 -0.0180502 -2.53045e-07)
(15.4509 -0.01805 -2.771e-07)
(15.4509 -0.0180493 -2.25468e-07)
(15.4509 -0.0180502 -2.82995e-07)
(15.4509 -0.0180498 -1.62859e-07)
(15.4509 -0.01805 -1.20942e-07)
(15.4509 -0.0180492 -3.22813e-07)
(15.4509 -0.0180501 -2.21545e-07)
(15.4509 -0.0180499 -2.19109e-07)
(15.4509 -0.0180492 -3.30625e-07)
(15.4658 0.00415806 5.02976e-08)
(15.4658 0.00415885 -1.23598e-07)
(15.4658 0.00415778 2.54412e-08)
(15.4658 0.00415789 6.30703e-09)
(15.4658 0.00415824 -1.27606e-07)
(15.4659 0.00415932 -6.44019e-08)
(15.4658 0.00415805 -3.01391e-08)
(15.4658 0.00415824 8.58216e-08)
(15.4658 0.00415891 -1.98754e-07)
(15.4658 0.00415783 -1.60485e-07)
(15.4817 0.0127202 -8.51721e-08)
(15.4817 0.0127191 -8.44159e-08)
(15.4817 0.0127192 3.2969e-08)
(15.4817 0.0127201 -2.56573e-07)
(15.4817 0.012719 -2.04107e-07)
(15.4817 0.012719 -8.99261e-08)
(15.4817 0.0127196 -1.03729e-07)
(15.4817 0.0127204 -1.18445e-07)
(15.4817 0.0127193 -2.52461e-07)
(15.4817 0.0127194 -9.09251e-08)
(15.4932 0.0123199 5.40126e-07)
(15.4932 0.0123204 5.62656e-07)
(15.4932 0.0123215 5.3607e-07)
(15.4932 0.0123201 4.43256e-07)
(15.4932 0.0123202 4.83683e-07)
(15.4932 0.0123211 5.40643e-07)
(15.4932 0.0123198 4.98158e-07)
(15.4932 0.0123201 4.3978e-07)
(15.4932 0.0123211 4.50899e-07)
(15.4932 0.0123197 5.25248e-07)
(15.4987 0.00831757 -9.17847e-07)
(15.4987 0.00831612 -8.85355e-07)
(15.4987 0.00831637 -8.19847e-07)
(15.4987 0.00831748 -8.6947e-07)
(15.4987 0.00831623 -8.81729e-07)
(15.4987 0.00831629 -7.5614e-07)
(15.4987 0.00831706 -8.52312e-07)
(15.4987 0.00831762 -9.1037e-07)
(15.4987 0.00831627 -9.00345e-07)
(15.4987 0.00831649 -9.19659e-07)
(15.4996 0.00467428 -5.08832e-06)
(15.4996 0.0046746 -5.07993e-06)
(15.4996 0.00467573 -4.97071e-06)
(15.4996 0.00467444 -5.01287e-06)
(15.4996 0.00467458 -5.00794e-06)
(15.4996 0.00467567 -4.98029e-06)
(15.4996 0.00467407 -4.9179e-06)
(15.4996 0.00467431 -4.99135e-06)
(15.4996 0.00467553 -4.97647e-06)
(15.4996 0.00467408 -4.95724e-06)
(15.4985 0.00301996 -4.32733e-06)
(15.4985 0.0030182 -4.42333e-06)
(15.4985 0.00301851 -4.26945e-06)
(15.4985 0.00301969 -4.09795e-06)
(15.4985 0.00301791 -4.17519e-06)
(15.4985 0.00301811 -4.39546e-06)
(15.4985 0.00301861 -4.53002e-06)
(15.4985 0.00301985 -4.36174e-06)
(15.4985 0.00301831 -4.21284e-06)
(15.4985 0.00301869 -4.37134e-06)
(15.4972 0.00298886 3.72524e-07)
(15.4972 0.00298918 1.13103e-07)
(15.4972 0.00299019 2.18665e-07)
(15.4972 0.00298957 3.38833e-07)
(15.4972 0.00299022 1.07495e-07)
(15.4972 0.00299112 8.51833e-09)
(15.4972 0.00298919 -2.383e-07)
(15.4972 0.00298928 -1.45139e-07)
(15.4972 0.00299039 2.47943e-07)
(15.4972 0.00298862 2.934e-07)
(15.4966 0.0035447 -1.22106e-06)
(15.4966 0.00354295 -1.38547e-06)
(15.4966 0.00354308 -1.48758e-06)
(15.4966 0.00354446 -1.23397e-06)
(15.4966 0.00354236 -1.24064e-06)
(15.4966 0.00354278 -1.24328e-06)
(15.4966 0.00354414 -1.14213e-06)
(15.4966 0.00354235 -1.36057e-06)
(15.4966 0.00354241 -1.31832e-06)
(15.4966 0.00354289 -1.12037e-06)
(15.4964 0.00401368 -2.45103e-06)
(15.4964 0.00401504 -2.02246e-06)
(15.4964 0.00401309 -2.30546e-06)
(15.4964 0.00401372 -2.37692e-06)
(15.4964 0.00401466 -1.8332e-06)
(15.4964 0.00401518 -1.9945e-06)
(15.4964 0.004013 -2.00813e-06)
(15.4964 0.00401335 -2.04408e-06)
(15.4964 0.0040155 -2.23511e-06)
(15.4964 0.00401344 -2.42624e-06)
(15.4964 0.00426639 -1.22411e-06)
(15.4964 0.00426677 -8.24049e-07)
(15.4964 0.00426808 -1.01684e-06)
(15.4964 0.00426594 -1.09108e-06)
(15.4964 0.00426629 -1.05781e-06)
(15.4964 0.0042677 -8.80901e-07)
(15.4964 0.00426836 -9.01891e-07)
(15.4964 0.00426606 -9.48025e-07)
(15.4964 0.00426654 -9.66688e-07)
(15.4964 0.00426863 -9.54382e-07)
(4.98299 2.40081 -7.7192e-10)
(4.98299 2.40081 2.08042e-10)
(4.98299 2.40081 7.62679e-10)
(4.98299 2.40081 1.45889e-09)
(4.98299 2.40081 -9.98331e-10)
(4.98299 2.40081 1.40488e-10)
(4.98299 2.40081 -3.42922e-10)
(4.98299 2.40081 -1.62992e-09)
(4.98299 2.40081 -1.33037e-09)
(4.98299 2.40081 7.99553e-10)
(6.72554 3.12634 1.25923e-09)
(6.72554 3.12634 -1.02653e-09)
(6.72554 3.12634 3.13851e-10)
(6.72554 3.12634 1.24972e-09)
(6.72554 3.12634 -6.49047e-09)
(6.72554 3.12634 1.3252e-09)
(6.72554 3.12634 1.2735e-09)
(6.72554 3.12634 -6.104e-09)
(6.72554 3.12634 -3.50352e-09)
(6.72554 3.12634 2.06411e-09)
(7.77356 3.50424 -5.2599e-10)
(7.77356 3.50424 -2.64635e-09)
(7.77356 3.50424 2.04138e-09)
(7.77356 3.50424 2.27904e-09)
(7.77356 3.50424 -5.1078e-09)
(7.77356 3.50424 4.0464e-09)
(7.77356 3.50424 6.54436e-09)
(7.77356 3.50424 -4.80611e-09)
(7.77356 3.50424 -7.9431e-09)
(7.77356 3.50424 5.29725e-09)
(8.55879 3.74674 -4.39339e-09)
(8.55879 3.74674 -5.89513e-11)
(8.55879 3.74674 2.55668e-09)
(8.55879 3.74674 -1.17457e-09)
(8.55879 3.74674 -4.27997e-09)
(8.55879 3.74674 7.29639e-09)
(8.55879 3.74674 7.58262e-09)
(8.55879 3.74674 -4.98903e-09)
(8.55879 3.74674 -9.38923e-09)
(8.55879 3.74674 -1.41235e-09)
(9.21343 3.91626 -6.62515e-09)
(9.21343 3.91626 1.58189e-09)
(9.21343 3.91626 5.04377e-09)
(9.21343 3.91626 3.40117e-10)
(9.21343 3.91626 -3.76771e-09)
(9.21343 3.91626 3.48104e-09)
(9.21343 3.91626 7.69277e-09)
(9.21343 3.91626 -4.4322e-09)
(9.21343 3.91626 -4.19037e-09)
(9.21343 3.91626 -1.02332e-08)
(9.7929 4.03783 -4.07761e-09)
(9.7929 4.03783 6.96939e-09)
(9.7929 4.03783 8.30925e-09)
(9.7929 4.03783 6.04867e-09)
(9.7929 4.03783 1.9284e-09)
(9.7929 4.03783 2.56862e-09)
(9.7929 4.03783 8.32115e-09)
(9.7929 4.03783 6.1893e-10)
(9.7929 4.03783 -2.63251e-09)
(9.7929 4.03783 -1.0445e-08)
(10.3248 4.12322 -1.4832e-09)
(10.3248 4.12322 1.46105e-08)
(10.3248 4.12322 8.70605e-09)
(10.3248 4.12322 3.85249e-09)
(10.3248 4.12322 7.51295e-09)
(10.3248 4.12322 7.66962e-09)
(10.3248 4.12322 7.25429e-09)
(10.3248 4.12322 1.11212e-09)
(10.3248 4.12322 -9.51314e-09)
(10.3248 4.12322 -5.3925e-09)
(10.8243 4.17851 -3.08174e-09)
(10.8243 4.17851 1.47073e-08)
(10.8243 4.17851 7.87404e-09)
(10.8243 4.17851 6.00116e-10)
(10.8243 4.17851 1.34888e-08)
(10.8243 4.17851 9.09712e-09)
(10.8243 4.17851 2.68706e-09)
(10.8243 4.17851 -2.25476e-09)
(10.8243 4.17851 -1.03208e-08)
(10.8243 4.17851 -2.91674e-09)
(11.3004 4.20692 -3.09337e-09)
(11.3004 4.20692 -7.85197e-10)
(11.3004 4.20692 3.83452e-09)
(11.3004 4.20692 -4.10394e-09)
(11.3004 4.20692 1.33644e-08)
(11.3004 4.20692 3.29229e-10)
(11.3004 4.20692 5.45006e-10)
(11.3004 4.20692 4.61287e-10)
(11.3004 4.20692 -8.46e-09)
(11.3004 4.20692 4.36562e-09)
(11.7584 4.21011 -4.43687e-09)
(11.7584 4.21011 -3.6361e-09)
(11.7584 4.21011 -7.25029e-09)
(11.7584 4.21011 -1.22133e-08)
(11.7584 4.21011 5.76141e-09)
(11.7584 4.21011 1.83491e-09)
(11.7584 4.21011 4.41909e-09)
(11.7584 4.21011 4.61857e-09)
(11.7584 4.21011 -3.60743e-09)
(11.7584 4.21011 8.52418e-09)
(12.2015 4.18887 -8.19787e-09)
(12.2015 4.18887 -9.60111e-09)
(12.2015 4.18887 -1.45988e-08)
(12.2015 4.18887 -1.72837e-08)
(12.2015 4.18887 -8.66391e-10)
(12.2015 4.18887 1.17e-08)
(12.2015 4.18887 7.93156e-09)
(12.2015 4.18887 4.1599e-09)
(12.2015 4.18887 2.33003e-09)
(12.2015 4.18887 2.66364e-09)
(12.6313 4.14345 -5.1432e-09)
(12.6313 4.14345 -1.38093e-08)
(12.6313 4.14345 5.19459e-10)
(12.6313 4.14345 -6.25159e-09)
(12.6313 4.14345 -2.13441e-09)
(12.6313 4.14345 1.64022e-08)
(12.6313 4.14345 2.61557e-09)
(12.6313 4.14345 9.00589e-09)
(12.6313 4.14345 6.37621e-09)
(12.6313 4.14345 -2.66296e-09)
(13.0484 4.07381 -1.11324e-09)
(13.0484 4.07381 -1.23788e-08)
(13.0484 4.07381 1.38552e-09)
(13.0484 4.07381 -1.97999e-09)
(13.0484 4.07381 -1.42624e-08)
(13.0484 4.07381 8.96109e-09)
(13.0484 4.07381 6.64416e-10)
(13.0484 4.07381 2.11318e-09)
(13.0484 4.07381 1.4786e-08)
(13.0484 4.07381 3.47603e-09)
(13.4524 3.97979 1.7547e-09)
(13.4524 3.97979 -1.34595e-08)
(13.4524 3.97979 7.79393e-09)
(13.4524 3.97979 1.97037e-09)
(13.4524 3.97979 -1.42162e-08)
(13.4524 3.97979 1.48964e-09)
(13.4524 3.97979 -4.33824e-09)
(13.4524 3.97979 -1.70693e-08)
(13.4524 3.97979 -7.4286e-09)
(13.4524 3.97979 1.46571e-08)
(13.8424 3.86122 -8.6549e-09)
(13.8424 3.86122 -1.52469e-08)
(13.8424 3.86122 4.003e-09)
(13.8424 3.86122 -1.35129e-09)
(13.8424 3.86122 -1.16469e-08)
(13.8424 3.86122 -9.65659e-09)
(13.8424 3.86122 7.58492e-09)
(13.8424 3.86122 -1.18882e-08)
(13.8424 3.86122 -1.93217e-08)
(13.8424 3.86122 6.76771e-09)
(14.2167 3.71804 -1.64067e-08)
(14.2167 3.71804 -6.95565e-09)
(14.2167 3.71804 -1.65959e-08)
(14.2167 3.71804 7.07357e-09)
(14.2167 3.71804 -1.21563e-09)
(14.2167 3.71804 -1.49929e-08)
(14.2167 3.71804 4.37408e-09)
(14.2167 3.71804 -6.7557e-09)
(14.2167 3.71804 -6.95385e-09)
(14.2167 3.71804 -1.74171e-08)
(14.5732 3.5504 -1.56768e-08)
(14.5732 3.5504 9.56828e-09)
(14.5732 3.5504 2.24073e-09)
(14.5732 3.5504 4.56556e-09)
(14.5732 3.5504 2.2581e-08)
(14.5732 3.5504 -2.25198e-09)
(14.5732 3.5504 -1.71555e-08)
(14.5732 3.5504 -9.4239e-09)
(14.5732 3.5504 7.12303e-09)
(14.5732 3.5504 -1.44452e-08)
(14.9094 3.35878 2.79696e-09)
(14.9094 3.35878 3.84151e-09)
(14.9094 3.35878 2.36518e-09)
(14.9094 3.35878 4.69034e-10)
(14.9094 3.35878 1.10166e-08)
(14.9094 3.35878 -5.08268e-09)
(14.9094 3.35878 -1.93392e-08)
(14.9094 3.35878 -2.97425e-10)
(14.9094 3.35878 -1.14175e-08)
(14.9094 3.35878 -3.66186e-09)
(15.2224 3.14406 -7.62844e-09)
(15.2224 3.14406 4.23437e-09)
(15.2224 3.14406 -1.47431e-08)
(15.2224 3.14406 -8.25223e-10)
(15.2224 3.14406 1.59354e-09)
(15.2224 3.14406 -1.52858e-08)
(15.2224 3.14406 -4.92699e-09)
(15.2224 3.14406 1.5475e-08)
(15.2224 3.14406 -1.26002e-08)
(15.2224 3.14406 -6.69084e-09)
(15.509 2.90768 -7.08504e-09)
(15.509 2.90768 8.83375e-09)
(15.509 2.90768 -9.22965e-09)
(15.509 2.90768 6.96428e-09)
(15.509 2.90768 -1.23514e-09)
(15.509 2.90768 -1.62522e-09)
(15.509 2.90768 1.60964e-08)
(15.509 2.90768 -4.39115e-09)
(15.509 2.90768 9.11603e-09)
(15.509 2.90768 -3.82433e-09)
(15.7659 2.65168 1.11222e-08)
(15.7659 2.65168 -9.20722e-09)
(15.7659 2.65168 7.92721e-09)
(15.7659 2.65167 2.08619e-08)
(15.7659 2.65168 -2.13232e-08)
(15.7659 2.65168 1.98947e-08)
(15.7659 2.65167 2.24969e-08)
(15.7659 2.65168 -1.50345e-08)
(15.7659 2.65168 7.38626e-09)
(15.7659 2.65167 1.22549e-08)
(15.9898 2.37884 3.07808e-08)
(15.9898 2.37884 1.17187e-08)
(15.9898 2.37884 3.0743e-08)
(15.9898 2.37884 5.78896e-09)
(15.9898 2.37884 1.16948e-08)
(15.9898 2.37884 2.88197e-08)
(15.9898 2.37884 1.17025e-08)
(15.9898 2.37884 3.8744e-09)
(15.9898 2.37884 2.73405e-08)
(15.9898 2.37884 3.04673e-08)
(16.1773 2.09277 -2.87528e-09)
(16.1773 2.09277 7.20669e-09)
(16.1773 2.09277 1.01536e-08)
(16.1773 2.09277 1.36298e-08)
(16.1773 2.09277 3.10357e-08)
(16.1773 2.09277 -4.18709e-09)
(16.1773 2.09277 1.11776e-08)
(16.1773 2.09277 2.26727e-08)
(16.1773 2.09277 2.03042e-08)
(16.1773 2.09277 2.52924e-08)
(16.3256 1.79793 -4.04805e-08)
(16.3256 1.79793 8.62515e-10)
(16.3256 1.79793 -1.1101e-08)
(16.3256 1.79793 -2.53507e-08)
(16.3256 1.79793 1.3575e-08)
(16.3256 1.79793 -3.64556e-08)
(16.3256 1.79793 -2.86001e-08)
(16.3256 1.79793 1.21184e-08)
(16.3256 1.79793 -1.53904e-08)
(16.3256 1.79793 -2.19737e-08)
(16.4324 1.49969 -2.61439e-08)
(16.4324 1.49969 -8.48695e-09)
(16.4324 1.49969 -2.64929e-08)
(16.4324 1.49969 -6.15532e-08)
(16.4324 1.49969 -4.76151e-09)
(16.4324 1.49969 -4.3778e-08)
(16.4324 1.49969 -4.09038e-08)
(16.4324 1.49969 -2.36934e-08)
(16.4324 1.49969 -2.03475e-08)
(16.4324 1.49969 -4.13933e-08)
(16.4962 1.20428 -1.96233e-08)
(16.4962 1.20428 -2.17164e-08)
(16.4962 1.20428 -9.48631e-09)
(16.4962 1.20428 -1.78915e-08)
(16.4962 1.20428 7.94496e-09)
(16.4962 1.20428 -4.01726e-08)
(16.4962 1.20428 -3.54703e-08)
(16.4962 1.20428 -6.48943e-09)
(16.4962 1.20428 -5.04951e-08)
(16.4962 1.20428 -4.43376e-08)
(16.5168 0.918642 -9.69515e-09)
(16.5168 0.918642 -3.39686e-08)
(16.5168 0.918641 -1.64742e-09)
(16.5168 0.918642 -2.69955e-08)
(16.5168 0.918642 -1.36604e-08)
(16.5168 0.918641 -2.1715e-08)
(16.5168 0.918642 -1.02762e-08)
(16.5168 0.918642 -4.19826e-08)
(16.5168 0.918641 -5.7457e-08)
(16.5168 0.918642 -3.06768e-08)
(16.4954 0.650251 -2.23926e-08)
(16.4954 0.650251 -6.06495e-08)
(16.4954 0.650251 -1.21879e-08)
(16.4954 0.650251 -1.28289e-08)
(16.4954 0.650251 -5.05071e-08)
(16.4954 0.650251 -1.39203e-08)
(16.4954 0.650251 -1.90775e-08)
(16.4954 0.650251 -6.08514e-08)
(16.4954 0.650251 -1.17996e-08)
(16.4954 0.650251 -3.06551e-08)
(16.435 0.406733 9.13993e-09)
(16.435 0.406733 9.74559e-09)
(16.435 0.406733 5.29574e-09)
(16.435 0.406733 1.55951e-08)
(16.435 0.406733 -2.5658e-08)
(16.435 0.406733 -1.81722e-09)
(16.435 0.406733 -6.08527e-09)
(16.435 0.406733 -1.36962e-09)
(16.435 0.406733 1.12817e-08)
(16.435 0.406733 -2.09774e-08)
(16.3407 0.195377 6.1485e-08)
(16.3407 0.195377 8.81532e-08)
(16.3407 0.195377 3.57717e-08)
(16.3407 0.195377 7.13385e-08)
(16.3407 0.195377 3.94736e-08)
(16.3407 0.195377 5.23563e-08)
(16.3407 0.195377 7.70197e-08)
(16.3407 0.195377 6.12749e-08)
(16.3407 0.195377 8.84101e-08)
(16.3407 0.195377 4.47939e-08)
(16.2197 0.0224904 -6.67202e-08)
(16.2197 0.02249 -4.50117e-08)
(16.2197 0.02249 -4.22148e-08)
(16.2197 0.0224902 -5.52122e-09)
(16.2197 0.0224905 -5.82248e-08)
(16.2197 0.02249 -7.4635e-08)
(16.2197 0.0224901 -5.42641e-08)
(16.2197 0.0224904 -1.00331e-07)
(16.2197 0.02249 -7.11692e-08)
(16.2197 0.0224901 -3.2748e-08)
(16.0812 -0.107362 9.06923e-08)
(16.0812 -0.107362 6.98185e-08)
(16.0812 -0.107361 9.56374e-08)
(16.0812 -0.107362 8.35353e-08)
(16.0812 -0.107362 8.13125e-08)
(16.0812 -0.107361 1.09688e-07)
(16.0812 -0.107362 9.56848e-08)
(16.0812 -0.107362 9.41583e-08)
(16.0812 -0.107362 4.38585e-08)
(16.0812 -0.107361 1.24733e-07)
(15.9358 -0.192156 1.07513e-07)
(15.9358 -0.192157 7.54791e-08)
(15.9358 -0.192157 1.30245e-07)
(15.9358 -0.192156 7.03422e-08)
(15.9358 -0.192157 8.47265e-08)
(15.9358 -0.192157 1.74236e-07)
(15.9358 -0.192157 1.1253e-07)
(15.9358 -0.192156 2.20611e-07)
(15.9358 -0.192157 1.56031e-07)
(15.9358 -0.192157 1.88849e-07)
(15.7949 -0.233133 5.84956e-08)
(15.7949 -0.233133 3.82255e-08)
(15.7949 -0.233133 6.12329e-08)
(15.7949 -0.233133 4.56708e-08)
(15.7949 -0.233133 2.91761e-08)
(15.7949 -0.233133 5.01154e-08)
(15.7949 -0.233133 2.55196e-08)
(15.7949 -0.233133 3.22385e-08)
(15.7949 -0.233133 6.8995e-08)
(15.7949 -0.233133 8.65401e-08)
(15.6697 -0.235216 1.47031e-07)
(15.6697 -0.235217 1.22216e-07)
(15.6697 -0.235216 1.06563e-07)
(15.6697 -0.235216 1.8656e-07)
(15.6697 -0.235217 1.9368e-07)
(15.6697 -0.235217 7.73151e-08)
(15.6697 -0.235216 1.74116e-07)
(15.6697 -0.235217 1.54882e-07)
(15.6697 -0.235217 1.11708e-07)
(15.6697 -0.235216 1.40525e-07)
(15.569 -0.206919 -4.49479e-09)
(15.569 -0.206919 9.06787e-08)
(15.569 -0.206919 1.11958e-08)
(15.569 -0.206919 -6.62248e-10)
(15.569 -0.206918 6.86802e-08)
(15.569 -0.206919 5.86909e-09)
(15.569 -0.206919 2.37402e-08)
(15.569 -0.206918 6.54993e-08)
(15.569 -0.206919 8.15868e-08)
(15.569 -0.206919 1.74967e-08)
(15.4983 -0.159499 5.89786e-08)
(15.4983 -0.159499 8.30373e-08)
(15.4983 -0.159498 7.56693e-08)
(15.4983 -0.159499 8.79841e-08)
(15.4983 -0.159499 1.18973e-07)
(15.4983 -0.159498 8.37827e-08)
(15.4983 -0.159499 9.96756e-08)
(15.4983 -0.159499 6.83826e-08)
(15.4983 -0.159499 6.48426e-08)
(15.4983 -0.159498 7.59374e-08)
(15.4584 -0.105307 2.31497e-08)
(15.4584 -0.105308 4.15358e-08)
(15.4584 -0.105308 -5.81067e-08)
(15.4584 -0.105307 5.42941e-09)
(15.4584 -0.105307 2.48795e-08)
(15.4584 -0.105308 1.00113e-07)
(15.4584 -0.105308 9.1143e-08)
(15.4584 -0.105307 -5.76848e-08)
(15.4584 -0.105308 -7.80769e-09)
(15.4584 -0.105308 -7.43969e-09)
(15.4452 -0.0555506 3.72487e-07)
(15.4452 -0.0555504 3.70231e-07)
(15.4452 -0.0555498 2.17867e-07)
(15.4452 -0.0555507 2.60034e-07)
(15.4452 -0.0555505 2.38341e-07)
(15.4452 -0.0555504 3.01018e-07)
(15.4452 -0.0555494 2.81429e-07)
(15.4452 -0.0555504 2.21728e-07)
(15.4452 -0.0555503 2.37142e-07)
(15.4452 -0.0555496 2.7e-07)
(15.4509 -0.0180503 5.31529e-07)
(15.4509 -0.0180496 5.26172e-07)
(15.4509 -0.0180506 6.526e-07)
(15.4509 -0.0180504 6.86831e-07)
(15.4509 -0.0180497 5.67243e-07)
(15.4509 -0.0180507 6.12013e-07)
(15.4509 -0.0180505 5.18281e-07)
(15.4509 -0.0180498 5.6115e-07)
(15.4509 -0.0180508 5.66793e-07)
(15.4509 -0.0180507 4.53176e-07)
(15.4658 0.00415758 7.65593e-08)
(15.4658 0.00415765 -1.95549e-08)
(15.4658 0.00415791 1.04556e-07)
(15.4659 0.0041588 7.21744e-08)
(15.4658 0.00415776 1.17216e-07)
(15.4658 0.00415801 2.52672e-07)
(15.4658 0.00415875 6.33423e-08)
(15.4658 0.00415765 1.99819e-07)
(15.4658 0.00415788 1.03603e-07)
(15.4658 0.00415867 -6.44126e-09)
(15.4817 0.012719 1.51821e-06)
(15.4817 0.0127199 1.36559e-06)
(15.4817 0.0127187 1.42207e-06)
(15.4817 0.0127189 1.24533e-06)
(15.4817 0.0127191 1.29148e-06)
(15.4817 0.0127203 1.36443e-06)
(15.4817 0.0127189 1.41749e-06)
(15.4817 0.0127191 1.47324e-06)
(15.4817 0.0127199 1.19476e-06)
(15.4817 0.0127187 1.34461e-06)
(15.4932 0.0123194 4.79353e-07)
(15.4932 0.012318 6.23633e-07)
(15.4932 0.0123183 6.77761e-07)
(15.4932 0.0123191 3.82058e-07)
(15.4932 0.0123179 2.31286e-07)
(15.4932 0.0123182 3.66823e-07)
(15.4932 0.0123187 4.83587e-07)
(15.4932 0.0123198 4.36517e-07)
(15.4932 0.0123183 4.03514e-07)
(15.4932 0.0123184 4.6124e-07)
(15.4987 0.00831421 -1.3627e-06)
(15.4987 0.00831431 -1.39493e-06)
(15.4987 0.00831581 -1.34763e-06)