/*--------------------------------*- C++ -*----------------------------------*\
| =========                 |                                                 |
| \\      /  F ield         | foam-extend: Open Source CFD                    |
|  \\    /   O peration     | Version:     3.2                                |
|   \\  /    A nd           | Web:         http://www.foam-extend.org         |
|    \\/     M anipulation  | For copyright notice see file Copyright         |
\*---------------------------------------------------------------------------*/
FoamFile
{
    version     2.0;
    format      ascii;
    class       volScalarField;
    location    "350000";
    object      Uy;
}
// * * * * * * * * * * * * * * * * * * * * * * * * * * * * * * * * * * * * * //

dimensions      [0 1 -1 0 0 0 0];

internalField   nonuniform List<scalar> 
5000
(
2.40081
2.40081
2.40081
2.40081
2.40081
2.40081
2.40081
2.40081
2.40081
2.40081
3.12634
3.12634
3.12634
3.12634
3.12634
3.12634
3.12634
3.12634
3.12634
3.12634
3.50424
3.50424
3.50424
3.50424
3.50424
3.50424
3.50424
3.50424
3.50424
3.50424
3.74674
3.74674
3.74674
3.74674
3.74674
3.74674
3.74674
3.74674
3.74674
3.74674
3.91626
3.91626
3.91626
3.91626
3.91626
3.91626
3.91626
3.91626
3.91626
3.91626
4.03783
4.03783
4.03783
4.03783
4.03783
4.03783
4.03783
4.03783
4.03783
4.03783
4.12322
4.12322
4.12322
4.12322
4.12322
4.12322
4.12322
4.12322
4.12322
4.12322
4.17851
4.17851
4.17851
4.17851
4.17851
4.17851
4.17851
4.17851
4.17851
4.17851
4.20692
4.20692
4.20692
4.20692
4.20692
4.20692
4.20692
4.20692
4.20692
4.20692
4.21011
4.21011
4.21011
4.21011
4.21011
4.21011
4.21011
4.21011
4.21011
4.21011
4.18887
4.18887
4.18887
4.18887
4.18887
4.18887
4.18887
4.18887
4.18887
4.18887
4.14345
4.14345
4.14345
4.14345
4.14345
4.14345
4.14345
4.14345
4.14345
4.14345
4.07381
4.07381
4.07381
4.07381
4.07381
4.07381
4.07381
4.07381
4.07381
4.07381
3.97979
3.97979
3.97979
3.97979
3.97979
3.97979
3.97979
3.97979
3.97979
3.97979
3.86122
3.86122
3.86122
3.86122
3.86122
3.86122
3.86122
3.86122
3.86122
3.86122
3.71804
3.71804
3.71804
3.71804
3.71804
3.71804
3.71804
3.71804
3.71804
3.71804
3.5504
3.5504
3.5504
3.5504
3.5504
3.5504
3.5504
3.5504
3.5504
3.5504
3.35878
3.35878
3.35878
3.35878
3.35878
3.35878
3.35878
3.35878
3.35878
3.35878
3.14406
3.14406
3.14406
3.14406
3.14406
3.14406
3.14406
3.14406
3.14406
3.14406
2.90768
2.90768
2.90768
2.90768
2.90768
2.90768
2.90768
2.90768
2.90768
2.90768
2.65167
2.65168
2.65168
2.65168
2.65167
2.65167
2.65168
2.65167
2.65167
2.65168
2.37884
2.37884
2.37884
2.37884
2.37884
2.37884
2.37884
2.37884
2.37884
2.37884
2.09277
2.09277
2.09277
2.09277
2.09277
2.09277
2.09277
2.09277
2.09277
2.09277
1.79793
1.79793
1.79793
1.79793
1.79793
1.79793
1.79793
1.79793
1.79793
1.79793
1.49969
1.49969
1.49969
1.49969
1.49969
1.49969
1.49969
1.49969
1.49969
1.49969
1.20428
1.20428
1.20428
1.20428
1.20428
1.20428
1.20428
1.20428
1.20428
1.20428
0.918642
0.918642
0.918642
0.918642
0.918642
0.918642
0.918642
0.918642
0.918642
0.918642
0.650251
0.650251
0.650251
0.650251
0.650251
0.650251
0.650251
0.650251
0.650251
0.650251
0.406733
0.406733
0.406733
0.406733
0.406733
0.406733
0.406733
0.406733
0.406733
0.406733
0.195377
0.195377
0.195377
0.195377
0.195377
0.195377
0.195377
0.195377
0.195377
0.195377
0.0224899
0.02249
0.0224901
0.0224898
0.0224899
0.0224901
0.0224898
0.0224899
0.0224901
0.0224898
-0.107361
-0.107362
-0.107361
-0.107361
-0.107362
-0.107361
-0.107361
-0.107362
-0.107362
-0.107361
-0.192156
-0.192156
-0.192156
-0.192156
-0.192156
-0.192156
-0.192157
-0.192156
-0.192156
-0.192157
-0.233133
-0.233133
-0.233133
-0.233133
-0.233133
-0.233133
-0.233133
-0.233133
-0.233133
-0.233133
-0.235217
-0.235216
-0.235217
-0.235217
-0.235216
-0.235217
-0.235217
-0.235216
-0.235217
-0.235217
-0.206919
-0.206919
-0.206918
-0.206919
-0.206919
-0.206919
-0.206919
-0.206919
-0.206919
-0.206918
-0.159498
-0.159499
-0.159499
-0.159498
-0.159498
-0.159499
-0.159498
-0.159498
-0.159499
-0.159499
-0.105307
-0.105307
-0.105307
-0.105308
-0.105307
-0.105307
-0.105308
-0.105308
-0.105307
-0.105307
-0.0555508
-0.0555499
-0.0555509
-0.0555508
-0.0555501
-0.0555511
-0.0555509
-0.0555502
-0.0555511
-0.0555509
-0.0180502
-0.01805
-0.0180493
-0.0180502
-0.0180498
-0.01805
-0.0180492
-0.0180501
-0.0180499
-0.0180492
0.00415806
0.00415885
0.00415778
0.00415789
0.00415824
0.00415932
0.00415805
0.00415824
0.00415891
0.00415783
0.0127202
0.0127191
0.0127192
0.0127201
0.012719
0.012719
0.0127196
0.0127204
0.0127193
0.0127194
0.0123199
0.0123204
0.0123215
0.0123201
0.0123202
0.0123211
0.0123198
0.0123201
0.0123211
0.0123197
0.00831757
0.00831612
0.00831637
0.00831748
0.00831623
0.00831629
0.00831706
0.00831762
0.00831627
0.00831649
0.00467428
0.0046746
0.00467573
0.00467444
0.00467458
0.00467567
0.00467407
0.00467431
0.00467553
0.00467408
0.00301996
0.0030182
0.00301851
0.00301969
0.00301791
0.00301811
0.00301861
0.00301985
0.00301831
0.00301869
0.00298886
0.00298918
0.00299019
0.00298957
0.00299022
0.00299112
0.00298919
0.00298928
0.00299039
0.00298862
0.0035447
0.00354295
0.00354308
0.00354446
0.00354236
0.00354278
0.00354414
0.00354235
0.00354241
0.00354289
0.00401368
0.00401504
0.00401309
0.00401372
0.00401466
0.00401518
0.004013
0.00401335
0.0040155
0.00401344
0.00426639
0.00426677
0.00426808
0.00426594
0.00426629
0.0042677
0.00426836
0.00426606
0.00426654
0.00426863
2.40081
2.40081
2.40081
2.40081
2.40081
2.40081
2.40081
2.40081
2.40081
2.40081
3.12634
3.12634
3.12634
3.12634
3.12634
3.12634
3.12634
3.12634
3.12634
3.12634
3.50424
3.50424
3.50424
3.50424
3.50424
3.50424
3.50424
3.50424
3.50424
3.50424
3.74674
3.74674
3.74674
3.74674
3.74674
3.74674
3.74674
3.74674
3.74674
3.74674
3.91626
3.91626
3.91626
3.91626
3.91626
3.91626
3.91626
3.91626
3.91626
3.91626
4.03783
4.03783
4.03783
4.03783
4.03783
4.03783
4.03783
4.03783
4.03783
4.03783
4.12322
4.12322
4.12322
4.12322
4.12322
4.12322
4.12322
4.12322
4.12322
4.12322
4.17851
4.17851
4.17851
4.17851
4.17851
4.17851
4.17851
4.17851
4.17851
4.17851
4.20692
4.20692
4.20692
4.20692
4.20692
4.20692
4.20692
4.20692
4.20692
4.20692
4.21011
4.21011
4.21011
4.21011
4.21011
4.21011
4.21011
4.21011
4.21011
4.21011
4.18887
4.18887
4.18887
4.18887
4.18887
4.18887
4.18887
4.18887
4.18887
4.18887
4.14345
4.14345
4.14345
4.14345
4.14345
4.14345
4.14345
4.14345
4.14345
4.14345
4.07381
4.07381
4.07381
4.07381
4.07381
4.07381
4.07381
4.07381
4.07381
4.07381
3.97979
3.97979
3.97979
3.97979
3.97979
3.97979
3.97979
3.97979
3.97979
3.97979
3.86122
3.86122
3.86122
3.86122
3.86122
3.86122
3.86122
3.86122
3.86122
3.86122
3.71804
3.71804
3.71804
3.71804
3.71804
3.71804
3.71804
3.71804
3.71804
3.71804
3.5504
3.5504
3.5504
3.5504
3.5504
3.5504
3.5504
3.5504
3.5504
3.5504
3.35878
3.35878
3.35878
3.35878
3.35878
3.35878
3.35878
3.35878
3.35878
3.35878
3.14406
3.14406
3.14406
3.14406
3.14406
3.14406
3.14406
3.14406
3.14406
3.14406
2.90768
2.90768
2.90768
2.90768
2.90768
2.90768
2.90768
2.90768
2.90768
2.90768
2.65168
2.65168
2.65168
2.65167
2.65168
2.65168
2.65167
2.65168
2.65168
2.65167
2.37884
2.37884
2.37884
2.37884
2.37884
2.37884
2.37884
2.37884
2.37884
2.37884
2.09277
2.09277
2.09277
2.09277
2.09277
2.09277
2.09277
2.09277
2.09277
2.09277
1.79793
1.79793
1.79793
1.79793
1.79793
1.79793
1.79793
1.79793
1.79793
1.79793
1.49969
1.49969
1.49969
1.49969
1.49969
1.49969
1.49969
1.49969
1.49969
1.49969
1.20428
1.20428
1.20428
1.20428
1.20428
1.20428
1.20428
1.20428
1.20428
1.20428
0.918642
0.918642
0.918641
0.918642
0.918642
0.918641
0.918642
0.918642
0.918641
0.918642
0.650251
0.650251
0.650251
0.650251
0.650251
0.650251
0.650251
0.650251
0.650251
0.650251
0.406733
0.406733
0.406733
0.406733
0.406733
0.406733
0.406733
0.406733
0.406733
0.406733
0.195377
0.195377
0.195377
0.195377
0.195377
0.195377
0.195377
0.195377
0.195377
0.195377
0.0224904
0.02249
0.02249
0.0224902
0.0224905
0.02249
0.0224901
0.0224904
0.02249
0.0224901
-0.107362
-0.107362
-0.107361
-0.107362
-0.107362
-0.107361
-0.107362
-0.107362
-0.107362
-0.107361
-0.192156
-0.192157
-0.192157
-0.192156
-0.192157
-0.192157
-0.192157
-0.192156
-0.192157
-0.192157
-0.233133
-0.233133
-0.233133
-0.233133
-0.233133
-0.233133
-0.233133
-0.233133
-0.233133
-0.233133
-0.235216
-0.235217
-0.235216
-0.235216
-0.235217
-0.235217
-0.235216
-0.235217
-0.235217
-0.235216
-0.206919
-0.206919
-0.206919
-0.206919
-0.206918
-0.206919
-0.206919
-0.206918
-0.206919
-0.206919
-0.159499
-0.159499
-0.159498
-0.159499
-0.159499
-0.159498
-0.159499
-0.159499
-0.159499
-0.159498
-0.105307
-0.105308
-0.105308
-0.105307
-0.105307
-0.105308
-0.105308
-0.105307
-0.105308
-0.105308
-0.0555506
-0.0555504
-0.0555498
-0.0555507
-0.0555505
-0.0555504
-0.0555494
-0.0555504
-0.0555503
-0.0555496
-0.0180503
-0.0180496
-0.0180506
-0.0180504
-0.0180497
-0.0180507
-0.0180505
-0.0180498
-0.0180508
-0.0180507
0.00415758
0.00415765
0.00415791
0.0041588
0.00415776
0.00415801
0.00415875
0.00415765
0.00415788
0.00415867
0.012719
0.0127199
0.0127187
0.0127189
0.0127191
0.0127203
0.0127189
0.0127191
0.0127199
0.0127187
0.0123194
0.012318
0.0123183
0.0123191
0.0123179
0.0123182
0.0123187
0.0123198
0.0123183
0.0123184
0.00831421
0.00831431
0.00831581
0.00831414
0.00831423
0.00831556
0.00831394
0.00831415
0.00831511
0.00831396
0.00467025
0.0046686
0.00466891
0.00467007
0.00466847
0.00466852
0.00466947
0.00467017
0.00466876
0.00466904
0.00302318
0.00302319
0.00302436
0.00302296
0.00302269
0.00302382
0.00302481
0.00302336
0.00302326
0.00302457
0.00298767
0.00298578
0.00298622
0.00298793
0.00298593
0.00298618
0.00298754
0.00298576
0.00298583
0.00298684
0.00354647
0.00354779
0.00354592
0.00354623
0.00354652
0.0035486
0.00354639
0.00354652
0.00354799
0.00354601
0.00401877
0.00401684
0.00401699
0.00401871
0.00401637
0.00401664
0.00401729
0.00401899
0.00401705
0.00401735
0.00426758
0.0042692
0.00426708
0.00426736
0.00426894
0.00426714
0.00426705
0.00426755
0.00426904
0.00426718
2.40081
2.40081
2.40081
2.40081
2.40081
2.40081
2.40081
2.40081
2.40081
2.40081
3.12634
3.12634
3.12634
3.12634
3.12634
3.12634
3.12634
3.12634
3.12634
3.12634
3.50424
3.50424
3.50424
3.50424
3.50424
3.50424
3.50424
3.50424
3.50424
3.50424
3.74674
3.74674
3.74674
3.74674
3.74674
3.74674
3.74674
3.74674
3.74674
3.74674
3.91626
3.91626
3.91626
3.91626
3.91626
3.91626
3.91626
3.91626
3.91626
3.91626
4.03783
4.03783
4.03783
4.03783
4.03783
4.03783
4.03783
4.03783
4.03783
4.03783
4.12322
4.12322
4.12322
4.12322
4.12322
4.12322
4.12322
4.12322
4.12322
4.12322
4.17851
4.17851
4.17851
4.17851
4.17851
4.17851
4.17851
4.17851
4.17851
4.17851
4.20692
4.20692
4.20692
4.20692
4.20692
4.20692
4.20692
4.20692
4.20692
4.20692
4.21011
4.21011
4.21011
4.21011
4.21011
4.21011
4.21011
4.21011
4.21011
4.21011
4.18887
4.18887
4.18887
4.18887
4.18887
4.18887
4.18887
4.18887
4.18887
4.18887
4.14345
4.14345
4.14345
4.14345
4.14345
4.14345
4.14345
4.14345
4.14345
4.14345
4.07381
4.07381
4.07381
4.07381
4.07381
4.07381
4.07381
4.07381
4.07381
4.07381
3.97979
3.97979
3.97979
3.97979
3.97979
3.97979
3.97979
3.97979
3.97979
3.97979
3.86122
3.86122
3.86122
3.86122
3.86122
3.86122
3.86122
3.86122
3.86122
3.86122
3.71804
3.71804
3.71804
3.71804
3.71804
3.71804
3.71804
3.71804
3.71804
3.71804
3.5504
3.5504
3.5504
3.5504
3.5504
3.5504
3.5504
3.5504
3.5504
3.5504
3.35878
3.35878
3.35878
3.35878
3.35878
3.35878
3.35878
3.35878
3.35878
3.35878
3.14406
3.14406
3.14406
3.14406
3.14406
3.14406
3.14406
3.14406
3.14406
3.14406
2.90768
2.90768
2.90768
2.90768
2.90768
2.90768
2.90768
2.90768
2.90768
2.90768
2.65168
2.65168
2.65168
2.65167
2.65168
2.65168
2.65167
2.65167
2.65168
2.65168
2.37884
2.37884
2.37884
2.37884
2.37884
2.37884
2.37884
2.37884
2.37884
2.37884
2.09277
2.09277
2.09277
2.09277
2.09277
2.09277
2.09277
2.09277
2.09277
2.09277
1.79793
1.79793
1.79793
1.79793
1.79793
1.79793
1.79793
1.79793
1.79793
1.79793
1.49969
1.49969
1.49969
1.49969
1.49969
1.49969
1.49969
1.49969
1.49969
1.49969
1.20428
1.20428
1.20428
1.20428
1.20428
1.20428
1.20428
1.20428
1.20428
1.20428
0.918642
0.918642
0.918641
0.918642
0.918642
0.918642
0.918642
0.918642
0.918642
0.918641
0.650251
0.650251
0.650251
0.650251
0.650251
0.650251
0.650251
0.650251
0.650251
0.650251
0.406733
0.406733
0.406733
0.406733
0.406733
0.406733
0.406733
0.406733
0.406733
0.406733
0.195377
0.195377
0.195377
0.195377
0.195377
0.195377
0.195377
0.195377
0.195377
0.195377
0.0224898
0.0224899
0.0224902
0.0224898
0.0224899
0.0224901
0.0224898
0.0224898
0.0224899
0.0224902
-0.107361
-0.107361
-0.107361
-0.107361
-0.107361
-0.107361
-0.107361
-0.107361
-0.107361
-0.107361
-0.192157
-0.192156
-0.192156
-0.192157
-0.192156
-0.192156
-0.192157
-0.192157
-0.192156
-0.192157
-0.233133
-0.233133
-0.233133
-0.233133
-0.233133
-0.233133
-0.233133
-0.233133
-0.233133
-0.233133
-0.235217
-0.235216
-0.235217
-0.235217
-0.235216
-0.235217
-0.235217
-0.235216
-0.235217
-0.235217
-0.206919
-0.206919
-0.206919
-0.206919
-0.206919
-0.206919
-0.206919
-0.206919
-0.206919
-0.206918
-0.159498
-0.159499
-0.159499
-0.159498
-0.159498
-0.159499
-0.159499
-0.159498
-0.159499
-0.159499
-0.105307
-0.105307
-0.105307
-0.105307
-0.105307
-0.105307
-0.105307
-0.105307
-0.105307
-0.105307
-0.0555503
-0.0555495
-0.0555503
-0.0555501
-0.0555495
-0.0555504
-0.0555502
-0.0555496
-0.0555505
-0.0555503
-0.0180504
-0.0180502
-0.0180495
-0.0180505
-0.0180499
-0.01805
-0.0180494
-0.0180503
-0.0180501
-0.0180494
0.00415885
0.0041596
0.00415861
0.00415881
0.00415902
0.00415981
0.00415868
0.00415891
0.00415966
0.00415863
0.0127207
0.0127195
0.0127197
0.0127205
0.0127194
0.0127194
0.0127198
0.0127205
0.0127196
0.0127198
0.0123176
0.0123177
0.0123186
0.0123175
0.0123176
0.0123185
0.0123172
0.0123175
0.0123184
0.0123173
0.00831122
0.00830981
0.00830995
0.00831042
0.00831135
0.00830983
0.00831017
0.00831114
0.00830965
0.00830994
0.00466634
0.0046669
0.00466812
0.00466678
0.00466693
0.00466818
0.0046666
0.00466685
0.00466798
0.0046665
0.00301968
0.00301829
0.00301848
0.00301935
0.00301772
0.00301865
0.00301829
0.00301889
0.00301849
0.00301906
0.00298893
0.00298966
0.00299124
0.00298949
0.00298976
0.00299104
0.0029893
0.00298941
0.00299076
0.00298885
0.00354864
0.00354703
0.00354722
0.00354872
0.00354671
0.00354712
0.00354826
0.00354651
0.00354655
0.00354729
0.00402222
0.00402366
0.00402146
0.00402226
0.00402249
0.00402406
0.00402214
0.00402233
0.00402384
0.0040217
0.00426588
0.00426668
0.00426773
0.00426567
0.00426571
0.00426653
0.0042684
0.00426643
0.0042666
0.00426788
2.40081
2.40081
2.40081
2.40081
2.40081
2.40081
2.40081
2.40081
2.40081
2.40081
3.12634
3.12634
3.12634
3.12634
3.12634
3.12634
3.12634
3.12634
3.12634
3.12634
3.50424
3.50424
3.50424
3.50424
3.50424
3.50424
3.50424
3.50424
3.50424
3.50424
3.74674
3.74674
3.74674
3.74674
3.74674
3.74674
3.74674
3.74674
3.74674
3.74674
3.91626
3.91626
3.91626
3.91626
3.91626
3.91626
3.91626
3.91626
3.91626
3.91626
4.03783
4.03783
4.03783
4.03783
4.03783
4.03783
4.03783
4.03783
4.03783
4.03783
4.12322
4.12322
4.12322
4.12322
4.12322
4.12322
4.12322
4.12322
4.12322
4.12322
4.17851
4.17851
4.17851
4.17851
4.17851
4.17851
4.17851
4.17851
4.17851
4.17851
4.20692
4.20692
4.20692
4.20692
4.20692
4.20692
4.20692
4.20692
4.20692
4.20692
4.21011
4.21011
4.21011
4.21011
4.21011
4.21011
4.21011
4.21011
4.21011
4.21011
4.18887
4.18887
4.18887
4.18887
4.18887
4.18887
4.18887
4.18887
4.18887
4.18887
4.14345
4.14345
4.14345
4.14345
4.14345
4.14345
4.14345
4.14345
4.14345
4.14345
4.07381
4.07381
4.07381
4.07381
4.07381
4.07381
4.07381
4.07381
4.07381
4.07381
3.97979
3.97979
3.97979
3.97979
3.97979
3.97979
3.97979
3.97979
3.97979
3.97979
3.86122
3.86122
3.86122
3.86122
3.86122
3.86122
3.86122
3.86122
3.86122
3.86122
3.71804
3.71804
3.71804
3.71804
3.71804
3.71804
3.71804
3.71804
3.71804
3.71804
3.5504
3.5504
3.5504
3.5504
3.5504
3.5504
3.5504
3.5504
3.5504
3.5504
3.35878
3.35878
3.35878
3.35878
3.35878
3.35878
3.35878
3.35878
3.35878
3.35878
3.14406
3.14406
3.14406
3.14406
3.14406
3.14406
3.14406
3.14406
3.14406
3.14406
2.90768
2.90768
2.90768
2.90768
2.90768
2.90768
2.90768
2.90768
2.90768
2.90768
2.65167
2.65167
2.65168
2.65167
2.65167
2.65168
2.65167
2.65167
2.65168
2.65168
2.37884
2.37884
2.37884
2.37884
2.37884
2.37884
2.37884
2.37884
2.37884
2.37884
2.09277
2.09277
2.09277
2.09277
2.09277
2.09277
2.09277
2.09277
2.09277
2.09277
1.79793
1.79793
1.79793
1.79793
1.79793
1.79793
1.79793
1.79793
1.79793
1.79793
1.49969
1.49969
1.49969
1.49969
1.49969
1.49969
1.49969
1.49969
1.49969
1.49969
1.20428
1.20428
1.20428
1.20428
1.20428
1.20428
1.20428
1.20428
1.20428
1.20428
0.918641
0.918641
0.918642
0.918642
0.918642
0.918642
0.918642
0.918642
0.918642
0.918642
0.650251
0.650251
0.650251
0.650251
0.650251
0.650251
0.650251
0.650251
0.650251
0.650251
0.406733
0.406733
0.406733
0.406733
0.406733
0.406733
0.406733
0.406733
0.406733
0.406733
0.195377
0.195377
0.195377
0.195377
0.195377
0.195377
0.195377
0.195377
0.195377
0.195377
0.0224902
0.0224897
0.0224899
0.02249
0.0224903
0.0224899
0.0224899
0.0224902
0.0224898
0.0224899
-0.107362
-0.107362
-0.107361
-0.107362
-0.107362
-0.107361
-0.107362
-0.107362
-0.107361
-0.107361
-0.192156
-0.192157
-0.192157
-0.192156
-0.192157
-0.192157
-0.192157
-0.192156
-0.192157
-0.192157
-0.233133
-0.233132
-0.233133
-0.233133
-0.233133
-0.233132
-0.233133
-0.233133
-0.233132
-0.233133
-0.235217
-0.235216
-0.235216
-0.235216
-0.235216
-0.235216
-0.235216
-0.235217
-0.235216
-0.235216
-0.206919
-0.206919
-0.206919
-0.206919
-0.206918
-0.206919
-0.206919
-0.206918
-0.206919
-0.206919
-0.159499
-0.159498
-0.159498
-0.159499
-0.159499
-0.159498
-0.159499
-0.159499
-0.159499
-0.159498
-0.105306
-0.105307
-0.105307
-0.105307
-0.105306
-0.105307
-0.105307
-0.105306
-0.105307
-0.105307
-0.0555499
-0.0555497
-0.0555491
-0.05555
-0.05555
-0.0555497
-0.0555489
-0.0555497
-0.0555496
-0.055549
-0.0180491
-0.0180482
-0.0180492
-0.018049
-0.0180483
-0.0180493
-0.0180491
-0.0180484
-0.0180494
-0.0180491
0.00415895
0.00415935
0.00415987
0.00416025
0.00415924
0.00415945
0.00416025
0.0041591
0.00415931
0.00416006
0.0127196
0.0127204
0.0127192
0.0127194
0.0127198
0.0127208
0.0127193
0.0127196
0.0127205
0.0127193
0.0123181
0.0123167
0.012317
0.0123179
0.0123165
0.0123168
0.0123174
0.0123185
0.0123168
0.012317
0.00830831
0.00830848
0.00830959
0.00830838
0.00830845
0.00830927
0.00830803
0.008308
0.00830871
0.0083096
0.00465811
0.00465661
0.004657
0.00465821
0.00465678
0.00465678
0.00465728
0.00465815
0.00465674
0.00465693
0.00301404
0.00301253
0.00301306
0.00301407
0.00301228
0.00301272
0.00301364
0.00301459
0.00301289
0.00301329
0.00298755
0.00298554
0.00298602
0.00298727
0.00298549
0.00298591
0.00298722
0.00298524
0.0029855
0.00298612
0.00355764
0.00355904
0.00355716
0.00355749
0.00355762
0.00355904
0.00355747
0.00355775
0.00355931
0.00355726
0.00403353
0.00403155
0.00403173
0.00403334
0.00403185
0.00403187
0.0040324
0.0040338
0.00403187
0.00403199
0.00426356
0.00426537
0.0042633
0.00426338
0.00426434
0.0042662
0.00426364
0.00426391
0.00426546
0.00426306
2.40081
2.40081
2.40081
2.40081
2.40081
2.40081
2.40081
2.40081
2.40081
2.40081
3.12634
3.12634
3.12634
3.12634
3.12634
3.12634
3.12634
3.12634
3.12634
3.12634
3.50424
3.50424
3.50424
3.50424
3.50424
3.50424
3.50424
3.50424
3.50424
3.50424
3.74674
3.74674
3.74674
3.74674
3.74674
3.74674
3.74674
3.74674
3.74674
3.74674
3.91626
3.91626
3.91626
3.91626
3.91626
3.91626
3.91626
3.91626
3.91626
3.91626
4.03783
4.03783
4.03783
4.03783
4.03783
4.03783
4.03783
4.03783
4.03783
4.03783
4.12322
4.12322
4.12322
4.12322
4.12322
4.12322
4.12322
4.12322
4.12322
4.12322
4.17851
4.17851
4.17851
4.17851
4.17851
4.17851
4.17851
4.17851
4.17851
4.17851
4.20692
4.20692
4.20692
4.20692
4.20692
4.20692
4.20692
4.20692
4.20692
4.20692
4.21011
4.21011
4.21011
4.21011
4.21011
4.21011
4.21011
4.21011
4.21011
4.21011
4.18887
4.18887
4.18887
4.18887
4.18887
4.18887
4.18887
4.18887
4.18887
4.18887
4.14345
4.14345
4.14345
4.14345
4.14345
4.14345
4.14345
4.14345
4.14345
4.14345
4.07381
4.07381
4.07381
4.07381
4.07381
4.07381
4.07381
4.07381
4.07381
4.07381
3.97979
3.97979
3.97979
3.97979
3.97979
3.97979
3.97979
3.97979
3.97979
3.97979
3.86122
3.86122
3.86122
3.86122
3.86122
3.86122
3.86122
3.86122
3.86122
3.86122
3.71804
3.71804
3.71804
3.71804
3.71804
3.71804
3.71804
3.71804
3.71804
3.71804
3.5504
3.5504
3.5504
3.5504
3.5504
3.5504
3.5504
3.5504
3.5504
3.5504
3.35878
3.35878
3.35878
3.35878
3.35878
3.35878
3.35878
3.35878
3.35878
3.35878
3.14406
3.14406
3.14406
3.14406
3.14406
3.14406
3.14406
3.14406
3.14406
3.14406
2.90768
2.90768
2.90768
2.90768
2.90768
2.90768
2.90768
2.90768
2.90768
2.90768
2.65167
2.65168
2.65168
2.65167
2.65167
2.65168
2.65167
2.65167
2.65168
2.65167
2.37884
2.37884
2.37884
2.37884
2.37884
2.37884
2.37884
2.37884
2.37884
2.37884
2.09277
2.09277
2.09277
2.09277
2.09277
2.09277
2.09277
2.09277
2.09277
2.09277
1.79793
1.79793
1.79793
1.79793
1.79793
1.79793
1.79793
1.79793
1.79793
1.79793
1.49969
1.49969
1.49969
1.49969
1.49969
1.49969
1.49969
1.49969
1.49969
1.49969
1.20428
1.20428
1.20428
1.20428
1.20428
1.20428
1.20428
1.20428
1.20428
1.20428
0.918642
0.918642
0.918642
0.918642
0.918642
0.918642
0.918642
0.918642
0.918642
0.918642
0.650251
0.650251
0.650251
0.650251
0.650251
0.650251
0.650251
0.650251
0.650251
0.650251
0.406733
0.406733
0.406733
0.406733
0.406733
0.406733
0.406733
0.406733
0.406733
0.406733
0.195377
0.195377
0.195377
0.195377
0.195377
0.195377
0.195377
0.195377
0.195377
0.195377
0.0224896
0.0224897
0.0224899
0.0224896
0.0224897
0.0224899
0.0224896
0.0224897
0.0224898
0.02249
-0.107361
-0.107362
-0.107361
-0.107362
-0.107361
-0.107362
-0.107362
-0.107361
-0.107362
-0.107362
-0.192156
-0.192156
-0.192156
-0.192156
-0.192156
-0.192156
-0.192156
-0.192156
-0.192156
-0.192157
-0.233133
-0.233132
-0.233133
-0.233133
-0.233133
-0.233133
-0.233133
-0.233133
-0.233133
-0.233133
-0.235217
-0.235216
-0.235217
-0.235217
-0.235216
-0.235217
-0.235217
-0.235216
-0.235217
-0.235217
-0.206919
-0.206919
-0.206918
-0.206919
-0.206919
-0.206918
-0.206919
-0.206919
-0.206919
-0.206918
-0.159498
-0.159498
-0.159498
-0.159498
-0.159498
-0.159498
-0.159498
-0.159498
-0.159498
-0.159498
-0.105307
-0.105307
-0.105306
-0.105307
-0.105307
-0.105306
-0.105307
-0.105307
-0.105306
-0.105306
-0.0555492
-0.0555482
-0.0555492
-0.0555491
-0.0555484
-0.0555493
-0.0555492
-0.0555485
-0.0555494
-0.0555492
-0.0180489
-0.0180487
-0.018048
-0.0180489
-0.0180487
-0.0180487
-0.0180479
-0.0180488
-0.0180486
-0.0180479
0.00415949
0.00416038
0.00415929
0.00415943
0.00415961
0.00416064
0.0041594
0.00415958
0.00416035
0.00415927
0.0127201
0.0127189
0.0127192
0.01272
0.0127189
0.012719
0.012719
0.0127201
0.0127191
0.0127193
0.0123155
0.0123157
0.0123167
0.0123155
0.0123156
0.0123166
0.0123153
0.0123155
0.0123161
0.0123169
0.00830841
0.00830692
0.00830727
0.00830824
0.00830704
0.0083069
0.00830769
0.00830839
0.00830706
0.00830729
0.00465927
0.00465968
0.00466116
0.00465959
0.00465973
0.00466086
0.00465928
0.00465955
0.00466065
0.00465916
0.00300648
0.00300434
0.00300475
0.00300607
0.0030043
0.00300553
0.00300545
0.00300626
0.00300457
0.00300506
0.00298357
0.00298446
0.00298561
0.00298406
0.00298423
0.00298563
0.00298384
0.00298398
0.0029853
0.00298372
0.00355873
0.00355657
0.00355679
0.00355827
0.00355628
0.00355676
0.00355831
0.00355642
0.0035565
0.00355695
0.00403792
0.00403897
0.00403723
0.0040382
0.00403793
0.00403979
0.00403773
0.00403802
0.0040393
0.00403745
0.0042666
0.00426696
0.00426491
0.00426537
0.00426739
0.0042652
0.00426567
0.00426716
0.00426505
0.00426532
2.40081
2.40081
2.40081
2.40081
2.40081
2.40081
2.40081
2.40081
2.40081
2.40081
3.12634
3.12634
3.12634
3.12634
3.12634
3.12634
3.12634
3.12634
3.12634
3.12634
3.50424
3.50424
3.50424
3.50424
3.50424
3.50424
3.50424
3.50424
3.50424
3.50424
3.74674
3.74674
3.74674
3.74674
3.74674
3.74674
3.74674
3.74674
3.74674
3.74674
3.91626
3.91626
3.91626
3.91626
3.91626
3.91626
3.91626
3.91626
3.91626
3.91626
4.03783
4.03783
4.03783
4.03783
4.03783
4.03783
4.03783
4.03783
4.03783
4.03783
4.12322
4.12322
4.12322
4.12322
4.12322
4.12322
4.12322
4.12322
4.12322
4.12322
4.17851
4.17851
4.17851
4.17851
4.17851
4.17851
4.17851
4.17851
4.17851
4.17851
4.20692
4.20692
4.20692
4.20692
4.20692
4.20692
4.20692
4.20692
4.20692
4.20692
4.21011
4.21011
4.21011
4.21011
4.21011
4.21011
4.21011
4.21011
4.21011
4.21011
4.18887
4.18887
4.18887
4.18887
4.18887
4.18887
4.18887
4.18887
4.18887
4.18887
4.14345
4.14345
4.14345
4.14345
4.14345
4.14345
4.14345
4.14345
4.14345
4.14345
4.07381
4.07381
4.07381
4.07381
4.07381
4.07381
4.07381
4.07381
4.07381
4.07381
3.97979
3.97979
3.97979
3.97979
3.97979
3.97979
3.97979
3.97979
3.97979
3.97979
3.86122
3.86122
3.86122
3.86122
3.86122
3.86122
3.86122
3.86122
3.86122
3.86122
3.71804
3.71804
3.71804
3.71804
3.71804
3.71804
3.71804
3.71804
3.71804
3.71804
3.5504
3.5504
3.5504
3.5504
3.5504
3.5504
3.5504
3.5504
3.5504
3.5504
3.35878
3.35878
3.35878
3.35878
3.35878
3.35878
3.35878
3.35878
3.35878
3.35878
3.14406
3.14406
3.14406
3.14406
3.14406
3.14406
3.14406
3.14406
3.14406
3.14406
2.90768
2.90768
2.90768
2.90768
2.90768
2.90768
2.90768
2.90768
2.90768
2.90768
2.65167
2.65167
2.65168
2.65167
2.65167
2.65168
2.65167
2.65167
2.65168
2.65167
2.37884
2.37884
2.37884
2.37884
2.37884
2.37884
2.37884
2.37884
2.37884
2.37884
2.09277
2.09277
2.09277
2.09277
2.09277
2.09277
2.09277
2.09277
2.09277
2.09277
1.79793
1.79793
1.79793
1.79793
1.79793
1.79793
1.79793
1.79793
1.79793
1.79793
1.49969
1.49969
1.49969
1.49969
1.49969
1.49969
1.49969
1.49969
1.49969
1.49969
1.20428
1.20428
1.20428
1.20428
1.20428
1.20428
1.20428
1.20428
1.20428
1.20428
0.918642
0.918642
0.918642
0.918642
0.918642
0.918642
0.918642
0.918642
0.918642
0.918642
0.650251
0.650251
0.650251
0.650251
0.650251
0.650251
0.650251
0.650251
0.650251
0.650251
0.406733
0.406733
0.406733
0.406733
0.406733
0.406733
0.406733
0.406733
0.406733
0.406733
0.195377
0.195377
0.195377
0.195377
0.195377
0.195377
0.195377
0.195377
0.195377
0.195377
0.02249
0.0224896
0.0224897
0.02249
0.0224896
0.0224897
0.0224898
0.02249
0.0224896
0.0224897
-0.107362
-0.107361
-0.107362
-0.107362
-0.107362
-0.107361
-0.107362
-0.107362
-0.107361
-0.107362
-0.192156
-0.192157
-0.192156
-0.192156
-0.192157
-0.192156
-0.192156
-0.192157
-0.192157
-0.192156
-0.233133
-0.233132
-0.233133
-0.233133
-0.233132
-0.233133
-0.233133
-0.233133
-0.233132
-0.233133
-0.235217
-0.235217
-0.235216
-0.235217
-0.235217
-0.235216
-0.235217
-0.235217
-0.235216
-0.235216
-0.206919
-0.206919
-0.206919
-0.206919
-0.206919
-0.206919
-0.206919
-0.206919
-0.206919
-0.206919
-0.159498
-0.159498
-0.159497
-0.159498
-0.159498
-0.159498
-0.159498
-0.159498
-0.159498
-0.159497
-0.105306
-0.105307
-0.105307
-0.105306
-0.105306
-0.105307
-0.105306
-0.105306
-0.105307
-0.105307
-0.0555506
-0.0555504
-0.0555498
-0.0555506
-0.0555505
-0.0555504
-0.0555497
-0.0555504
-0.0555503
-0.0555496
-0.0180484
-0.0180477
-0.0180489
-0.0180487
-0.0180479
-0.018049
-0.0180487
-0.018048
-0.018049
-0.0180489
0.00416013
0.00416026
0.00416044
0.00416144
0.00416034
0.00416054
0.00416135
0.00416022
0.00416043
0.00416121
0.0127186
0.0127194
0.0127183
0.0127184
0.012719
0.0127195
0.0127184
0.0127188
0.0127196
0.0127183
0.0123151
0.0123138
0.0123141
0.012315
0.0123138
0.0123139
0.0123144
0.0123157
0.0123143
0.0123145
0.00830673
0.00830688
0.00830791
0.00830657
0.0083067
0.00830785
0.0083065
0.00830639
0.0083071
0.00830809
0.00465715
0.00465545
0.00465579
0.00465694
0.00465548
0.00465559
0.00465598
0.00465712
0.00465577
0.00465599
0.00301364
0.00301369
0.00301479
0.00301528
0.00301366
0.00301409
0.00301537
0.00301395
0.00301405
0.00301517
0.00298928
0.00298752
0.00298787
0.00298933
0.00298744
0.00298791
0.00298923
0.00298741
0.00298761
0.00298866
0.00356181
0.00356296
0.00356172
0.00356123
0.00356129
0.00356325
0.00356148
0.00356179
0.00356328
0.00356134
0.0040403
0.00403764
0.00403893
0.00403897
0.0040404
0.00403865
0.00403885
0.00404015
0.0040378
0.00403825
0.00425669
0.00425508
0.00425521
0.0042569
0.00425464
0.00425524
0.00425717
0.00425501
0.00425504
0.00425568
2.40081
2.40081
2.40081
2.40081
2.40081
2.40081
2.40081
2.40081
2.40081
2.40081
3.12634
3.12634
3.12634
3.12634
3.12634
3.12634
3.12634
3.12634
3.12634
3.12634
3.50424
3.50424
3.50424
3.50424
3.50424
3.50424
3.50424
3.50424
3.50424
3.50424
3.74674
3.74674
3.74674
3.74674
3.74674
3.74674
3.74674
3.74674
3.74674
3.74674
3.91626
3.91626
3.91626
3.91626
3.91626
3.91626
3.91626
3.91626
3.91626
3.91626
4.03783
4.03783
4.03783
4.03783
4.03783
4.03783
4.03783
4.03783
4.03783
4.03783
4.12322
4.12322
4.12322
4.12322
4.12322
4.12322
4.12322
4.12322
4.12322
4.12322
4.17851
4.17851
4.17851
4.17851
4.17851
4.17851
4.17851
4.17851
4.17851
4.17851
4.20692
4.20692
4.20692
4.20692
4.20692
4.20692
4.20692
4.20692
4.20692
4.20692
4.21011
4.21011
4.21011
4.21011
4.21011
4.21011
4.21011
4.21011
4.21011
4.21011
4.18887
4.18887
4.18887
4.18887
4.18887
4.18887
4.18887
4.18887
4.18887
4.18887
4.14345
4.14345
4.14345
4.14345
4.14345
4.14345
4.14345
4.14345
4.14345
4.14345
4.07381
4.07381
4.07381
4.07381
4.07381
4.07381
4.07381
4.07381
4.07381
4.07381
3.97979
3.97979
3.97979
3.97979
3.97979
3.97979
3.97979
3.97979
3.97979
3.97979
3.86122
3.86122
3.86122
3.86122
3.86122
3.86122
3.86122
3.86122
3.86122
3.86122
3.71804
3.71804
3.71804
3.71804
3.71804
3.71804
3.71804
3.71804
3.71804
3.71804
3.5504
3.5504
3.5504
3.5504
3.5504
3.5504
3.5504
3.5504
3.5504
3.5504
3.35878
3.35878
3.35878
3.35878
3.35878
3.35878
3.35878
3.35878
3.35878
3.35878
3.14406
3.14406
3.14406
3.14406
3.14406
3.14406
3.14406
3.14406
3.14406
3.14406
2.90768
2.90768
2.90768
2.90768
2.90768
2.90768
2.90768
2.90768
2.90768
2.90768
2.65168
2.65168
2.65167
2.65168
2.65168
2.65167
2.65168
2.65168
2.65167
2.65168
2.37884
2.37884
2.37884
2.37884
2.37884
2.37884
2.37884
2.37884
2.37884
2.37884
2.09277
2.09277
2.09277
2.09277
2.09277
2.09277
2.09277
2.09277
2.09277
2.09277
1.79793
1.79793
1.79793
1.79793
1.79793
1.79793
1.79793
1.79793
1.79793
1.79793
1.49969
1.49969
1.49969
1.49969
1.49969
1.49969
1.49969
1.49969
1.49969
1.49969
1.20428
1.20428
1.20428
1.20428
1.20428
1.20428
1.20428
1.20428